#     Step Nr.          Time[fs]        Kin.[a.u.]          Temp[K]            Pot.[a.u.]        Cons Qty[a.u.]        UsedTime[s]
         0            0.000000         0.009975468       300.000000000        -8.246490498        -8.236515030         0.000000000
         1            0.500000         0.009491635       285.449313401        -8.246135587        -8.236510211         0.181533098
         2            1.000000         0.008645904       260.014988909        -8.245525005        -8.236499633         0.039680004
         3            1.500000         0.007886992       237.191636016        -8.244796096        -8.236486590         0.034688950
         4            2.000000         0.007210675       216.852227171        -8.244190744        -8.236478882         0.038230896
         5            2.500000         0.006688237       201.140536567        -8.243835624        -8.236480608         0.039667130
         6            3.000000         0.006633681       199.499844330        -8.243693183        -8.236489143         0.039156914
         7            3.500000         0.006541553       196.729191059        -8.243606946        -8.236498543         0.038676023
         8            4.000000         0.006268566       188.519461004        -8.243480030        -8.236504369         0.039505005
         9            4.500000         0.005767560       173.452310238        -8.243188370        -8.236503920         0.038295984
        10            5.000000         0.005549870       166.905541980        -8.242782115        -8.236498078         0.038531065
        11            5.500000         0.005290564       159.107230713        -8.242326067        -8.236488934         0.034311056
        12            6.000000         0.004921610       148.011407478        -8.241948072        -8.236480709         0.037784815
        13            6.500000         0.004797884       144.290493345        -8.241784414        -8.236476494         0.034116030
        14            7.000000         0.004916369       147.853790686        -8.241880689        -8.236478191         0.037760973
        15            7.500000         0.005377823       161.731459208        -8.242225260        -8.236485477         0.037610054
        16            8.000000         0.005841212       175.667309508        -8.242715585        -8.236495808         0.037420034
        17            8.500000         0.005951747       178.991500353        -8.243180034        -8.236505115         0.033724070
        18            9.000000         0.005930034       178.338511156        -8.243468574        -8.236508888         0.033567905
        19            9.500000         0.006209087       186.730687934        -8.243532488        -8.236506525         0.037137032
        20           10.000000         0.005932166       178.402628468        -8.243374222        -8.236498017         0.037211895
        21           10.500000         0.005747351       172.844542807        -8.243122792        -8.236487339         0.037667036
        22           11.000000         0.005921016       178.067311732        -8.242884030        -8.236478698         0.040765047
        23           11.500000         0.005805030       174.579172732        -8.242761208        -8.236475790         0.037169933
        24           12.000000         0.006046082       181.828510847        -8.242895093        -8.236483061         0.036944151
        25           12.500000         0.006107762       183.683476892        -8.243144367        -8.236495119         0.036998034
        26           13.000000         0.006514390       195.912293025        -8.243322292        -8.236505499         0.037005901
        27           13.500000         0.006864185       206.431967501        -8.243275452        -8.236509761         0.040676117
        28           14.000000         0.006585498       198.050798161        -8.242921526        -8.236506037         0.037065983
        29           14.500000         0.006094765       183.292590598        -8.242271656        -8.236495310         0.033398867
        30           15.000000         0.005222030       157.046160782        -8.241523275        -8.236482191         0.033919096
        31           15.500000         0.004915374       147.823849360        -8.240839677        -8.236470499         0.036985874
        32           16.000000         0.004185035       125.859799819        -8.240392622        -8.236464651         0.037938118
        33           16.500000         0.004012668       120.676072910        -8.240275278        -8.236466400         0.033650875
        34           17.000000         0.004176872       125.614301745        -8.240505642        -8.236475111         0.033370972
        35           17.500000         0.004645632       139.711684330        -8.240964273        -8.236488706         0.037089109
        36           18.000000         0.005039434       151.554814052        -8.241373575        -8.236499915         0.033376932
        37           18.500000         0.005167800       155.415268647        -8.241567609        -8.236504153         0.033339024
        38           19.000000         0.005349509       160.879928315        -8.241493070        -8.236498724         0.037048101
        39           19.500000         0.005136382       154.470412863        -8.241243915        -8.236485294         0.040817976
        40           20.000000         0.004958942       149.134106042        -8.241049168        -8.236471166         0.033804893
        41           20.500000         0.005067674       152.404087328        -8.241109528        -8.236463502         0.037595987
        42           21.000000         0.005481693       164.855204775        -8.241525448        -8.236467102         0.030284166
        43           21.500000         0.006124213       184.178213391        -8.242243090        -8.236479434         0.037073851
        44           22.000000         0.006660600       200.309380903        -8.243119536        -8.236495176         0.033854961
        45           22.500000         0.007559388       227.339340154        -8.243868411        -8.236505848         0.033405066
        46           23.000000         0.007987692       240.220049326        -8.244331382        -8.236507970         0.029639959
        47           23.500000         0.007931896       238.542056082        -8.244472746        -8.236502427         0.036929131
        48           24.000000         0.007712537       231.945107525        -8.244389704        -8.236492812         0.036803961
        49           24.500000         0.007408929       222.814482305        -8.244260791        -8.236483700         0.033411980
        50           25.000000         0.007481944       225.010320873        -8.244210341        -8.236477891         0.033303022
        51           25.500000         0.007705019       231.719006220        -8.244317672        -8.236478128         0.036963940
        52           26.000000         0.007817882       235.113224404        -8.244606597        -8.236484834         0.033311129
        53           26.500000         0.007934503       238.620451345        -8.244906364        -8.236493689         0.036854029
        54           27.000000         0.008205885       246.781957686        -8.245120480        -8.236502109         0.040442944
        55           27.500000         0.008353722       251.227955535        -8.245145691        -8.236507442         0.036988020
        56           28.000000         0.008282147       249.075427390        -8.244924941        -8.236506870         0.036942959
        57           28.500000         0.007733877       232.586893318        -8.244429360        -8.236499636         0.033339977
        58           29.000000         0.007058645       212.280112499        -8.243806492        -8.236489144         0.036761045
        59           29.500000         0.006352380       191.040045689        -8.243190514        -8.236478637         0.036875963
        60           30.000000         0.006086222       183.035664447        -8.242764312        -8.236473124         0.036773920
        61           30.500000         0.006025306       181.203708095        -8.242636613        -8.236474644         0.033348083
        62           31.000000         0.006214084       186.880979965        -8.242736327        -8.236480848         0.036895990
        63           31.500000         0.006725096       202.249021816        -8.243001011        -8.236489360         0.041421890
        64           32.000000         0.007105961       213.703072431        -8.243292170        -8.236495000         0.037235022
        65           32.500000         0.007287414       219.160054879        -8.243442206        -8.236494834         0.033267975
        66           33.000000         0.007361226       221.379847540        -8.243453077        -8.236489304         0.036730051
        67           33.500000         0.007885052       237.133284020        -8.243412945        -8.236481321         0.033241987
        68           34.000000         0.007930862       238.510971446        -8.243448952        -8.236474294         0.036801100
        69           34.500000         0.007982324       240.058615448        -8.243668814        -8.236471564         0.033156872
        70           35.000000         0.008856781       266.356837477        -8.244093136        -8.236473973         0.033205032
        71           35.500000         0.009665437       290.676180422        -8.244711729        -8.236480993         0.036847115
        72           36.000000         0.010502697       315.855761749        -8.245416611        -8.236491145         0.036753893
        73           36.500000         0.011132059       334.783035096        -8.246018331        -8.236500762         0.036983013
        74           37.000000         0.011394365       342.671575334        -8.246408959        -8.236506998         0.036762953
        75           37.500000         0.011224148       337.552506255        -8.246448826        -8.236506048         0.036828995
        76           38.000000         0.010424135       313.493092377        -8.246191759        -8.236499000         0.029684067
        77           38.500000         0.010121337       304.386835516        -8.245746726        -8.236488469         0.033291101
        78           39.000000         0.009505399       285.863233312        -8.245319585        -8.236480192         0.036810875
        79           39.500000         0.008988257       270.310830146        -8.245062599        -8.236478545         0.036859035
        80           40.000000         0.008851309       266.192286266        -8.244981726        -8.236483301         0.036740065
        81           40.500000         0.009075338       272.929669281        -8.244998959        -8.236491607         0.036800861
        82           41.000000         0.008998408       270.616093965        -8.244995260        -8.236499160         0.036756039
        83           41.500000         0.008602528       258.710512421        -8.244809476        -8.236501524         0.040336132
        84           42.000000         0.007929217       238.461497276        -8.244404221        -8.236497775         0.029660940
        85           42.500000         0.007363291       221.441960993        -8.243814863        -8.236488671         0.030349016
        86           43.000000         0.006496488       195.373931627        -8.243235148        -8.236478489         0.056339025
        87           43.500000         0.005948523       178.894537603        -8.242787269        -8.236470944         0.046478033
        88           44.000000         0.005893174       177.230005890        -8.242572113        -8.236469085         0.041285992
        89           44.500000         0.006093686       183.260141222        -8.242650781        -8.236473811         0.051709890
        90           45.000000         0.006174241       185.682732495        -8.242920514        -8.236482344         0.051849127
        91           45.500000         0.006400886       192.498822474        -8.243282927        -8.236492992         0.052153826
        92           46.000000         0.006477333       194.797855825        -8.243561841        -8.236501277         0.046893120
        93           46.500000         0.006540543       196.698812707        -8.243633073        -8.236503742         0.052171946
        94           47.000000         0.006252130       188.025157189        -8.243467371        -8.236499799         0.053271055
        95           47.500000         0.005819949       175.027853680        -8.243177380        -8.236490832         0.052212000
        96           48.000000         0.005669341       170.498493650        -8.242867349        -8.236481032         0.038645029
        97           48.500000         0.005370485       161.510752688        -8.242661578        -8.236473904         0.036775827
        98           49.000000         0.005593235       168.209689235        -8.242670852        -8.236473523         0.036753178
        99           49.500000         0.005659574       170.204772650        -8.242904629        -8.236479688         0.036942959
       100           50.000000         0.005741731       172.675546336        -8.243331031        -8.236491409         0.036785841
       101           50.500000         0.005707762       171.653955602        -8.243700645        -8.236501176         0.040354013
       102           51.000000         0.005880728       176.855700521        -8.243886187        -8.236505010         0.036866188
       103           51.500000         0.005750127       172.928024174        -8.243857394        -8.236502190         0.039398909
       104           52.000000         0.005592584       168.190118289        -8.243671415        -8.236495171         0.030061007
       105           52.500000         0.005433463       163.404737944        -8.243406616        -8.236486814         0.036894083
       106           53.000000         0.005075975       152.653732430        -8.243174389        -8.236479886         0.036846876
       107           53.500000         0.004772614       143.530514219        -8.243100662        -8.236477553         0.037473917
       108           54.000000         0.004760392       143.162957752        -8.243188186        -8.236479665         0.036807060
       109           54.500000         0.005308481       159.646065517        -8.243487778        -8.236487021         0.036880970
       110           55.000000         0.005725754       172.195038997        -8.243865244        -8.236496594         0.033318996
       111           55.500000         0.005925294       178.195965542        -8.244162695        -8.236505047         0.033241034
       112           56.000000         0.005894213       177.261253582        -8.244236338        -8.236508796         0.033317089
       113           56.500000         0.005365358       161.356566534        -8.244016702        -8.236504920         0.037047863
       114           57.000000         0.004779803       143.746714468        -8.243604313        -8.236495180         0.040530205
       115           57.500000         0.004375375       131.584055275        -8.243192174        -8.236484431         0.036912918
       116           58.000000         0.004094881       123.148537579        -8.242908080        -8.236477482         0.036757946
       117           58.500000         0.004154766       124.949502745        -8.242829838        -8.236478300         0.036831141
       118           59.000000         0.004288819       128.980988675        -8.242906495        -8.236484552         0.033231974
       119           59.500000         0.004790454       144.067039701        -8.243104954        -8.236494632         0.036748886
       120           60.000000         0.005159405       155.162797906        -8.243304225        -8.236503584         0.033137083
       121           60.500000         0.005139117       154.552666172        -8.243350118        -8.236506179         0.036848068
       122           61.000000         0.004962574       149.243327905        -8.243170981        -8.236501181         0.033281803
       123           61.500000         0.004845377       145.718791339        -8.242829110        -8.236492026         0.029662132
       124           62.000000         0.004344175       130.645741613        -8.242458687        -8.236482755         0.033223867
       125           62.500000         0.004069032       122.371163687        -8.242169796        -8.236475452         0.038192034
       126           63.000000         0.003698393       111.224643161        -8.242048198        -8.236471488         0.033221960
       127           63.500000         0.003698453       111.226445250        -8.242187189        -8.236472596         0.036645174
       128           64.000000         0.004014982       120.745660090        -8.242539188        -8.236478282         0.040861845
       129           64.500000         0.004318862       129.884497888        -8.243074217        -8.236488565         0.033156157
       130           65.000000         0.004965308       149.325545958        -8.243587192        -8.236499425         0.036823988
       131           65.500000         0.005252074       157.949696244        -8.243925119        -8.236506480         0.033214808
       132           66.000000         0.005171544       155.527843458        -8.243990747        -8.236505605         0.036797047
       133           66.500000         0.005110713       153.698452474        -8.243801782        -8.236495856         0.033225060
       134           67.000000         0.004900303       147.370617005        -8.243481124        -8.236480802         0.040292025
       135           67.500000         0.004844583       145.694918827        -8.243239306        -8.236467940         0.038161039
       136           68.000000         0.004936426       148.456978889        -8.243375249        -8.236469121         0.036967993
       137           68.500000         0.005475500       164.668954210        -8.243813057        -8.236482360         0.037227869
       138           69.000000         0.005955122       179.093017052        -8.244395059        -8.236500923         0.033282995
       139           69.500000         0.006031148       181.379386717        -8.244769754        -8.236512130         0.041657209
       140           70.000000         0.006193298       186.255870636        -8.244821084        -8.236512645         0.029673815
       141           70.500000         0.005908690       177.696632087        -8.244499452        -8.236503797         0.033506155
       142           71.000000         0.005438582       163.558709355        -8.243968146        -8.236491319         0.037179947
       143           71.500000         0.005041778       151.625291490        -8.243425940        -8.236479918         0.037051916
       144           72.000000         0.004841221       145.593790307        -8.243029194        -8.236472236         0.033209085
       145           72.500000         0.004860547       146.175011302        -8.242946275        -8.236471195         0.036985874
       146           73.000000         0.005127338       154.198404352        -8.243235083        -8.236478183         0.036807060
       147           73.500000         0.005102402       153.448497957        -8.243693897        -8.236489908         0.033298016
       148           74.000000         0.005497157       165.320253228        -8.244146074        -8.236502124         0.036835909
       149           74.500000         0.005502560       165.482755847        -8.244429948        -8.236510353         0.036992073
       150           75.000000         0.005374672       161.636672996        -8.244410018        -8.236509302         0.037301064
       151           75.500000         0.005350677       160.915072598        -8.244124121        -8.236498242         0.036791086
       152           76.000000         0.004922857       148.048896685        -8.243697020        -8.236482322         0.036807775
       153           76.500000         0.004499676       135.322248661        -8.243390828        -8.236471473         0.036840200
       154           77.000000         0.004696417       141.239000238        -8.243365839        -8.236472635         0.040334940
       155           77.500000         0.004958081       149.108216588        -8.243584826        -8.236483577         0.036782980
       156           78.000000         0.005217796       156.918833855        -8.243892095        -8.236496919         0.036833048
       157           78.500000         0.005547983       166.848793834        -8.244110094        -8.236505295         0.038022995
       158           79.000000         0.005569250       167.488372336        -8.244117056        -8.236505659         0.036792040
       159           79.500000         0.005490627       165.123894001        -8.243875392        -8.236498582         0.036824942
       160           80.000000         0.005275379       158.650566724        -8.243434787        -8.236486272         0.037163019
       161           80.500000         0.004709749       141.639950505        -8.243003426        -8.236474505         0.036931038
       162           81.000000         0.004645942       139.721024802        -8.242692245        -8.236465802         0.036978006
       163           81.500000         0.004647452       139.766428863        -8.242706166        -8.236464344         0.038549900
       164           82.000000         0.004814071       144.777290772        -8.243031718        -8.236469813         0.036947012
       165           82.500000         0.005556465       167.103881376        -8.243589621        -8.236481289         0.033195972
       166           83.000000         0.006229117       187.333058635        -8.244227418        -8.236496601         0.040443897
       167           83.500000         0.006694762       201.336772116        -8.244736747        -8.236510085         0.036852121
       168           84.000000         0.006741969       202.756468555        -8.244855615        -8.236513228         0.041126966
       169           84.500000         0.006437064       193.586825046        -8.244561132        -8.236503227         0.033236980
       170           85.000000         0.006024756       181.187172967        -8.244020590        -8.236483183         0.036729097
       171           85.500000         0.005607269       168.631742894        -8.243530935        -8.236463630         0.037431955
       172           86.000000         0.005454273       164.030578541        -8.243421439        -8.236458287         0.036737919
       173           86.500000         0.006125647       184.221330769        -8.243838345        -8.236473627         0.036846161
       174           87.000000         0.006835795       205.578166336        -8.244454534        -8.236495069         0.033183813
       175           87.500000         0.007141874       214.783121977        -8.244902112        -8.236508265         0.036778212
       176           88.000000         0.007473460       224.755175845        -8.244946614        -8.236508368         0.033096790
       177           88.500000         0.007158963       215.297049012        -8.244609054        -8.236498998         0.029659986
       178           89.000000         0.006507395       195.701934354        -8.244045233        -8.236485797         0.036708117
       179           89.500000         0.005978268       179.789105812        -8.243480107        -8.236474327         0.037550926
       180           90.000000         0.005739542       172.609707127        -8.243074371        -8.236467138         0.036878109
       181           90.500000         0.005904016       177.556055445        -8.242964529        -8.236466289         0.036753893
       182           91.000000         0.006118867       184.017436473        -8.243123823        -8.236471026         0.036751032
       183           91.500000         0.006605884       198.663884862        -8.243480570        -8.236480705         0.036800146
       184           92.000000         0.006899932       207.506994352        -8.243926087        -8.236492920         0.036764860
       185           92.500000         0.006875369       206.768320040        -8.244211808        -8.236500836         0.036772966
       186           93.000000         0.007037632       211.648181318        -8.244292024        -8.236501731         0.040264130
       187           93.500000         0.006836254       205.591961325        -8.244125062        -8.236493970         0.040308952
       188           94.000000         0.006643960       199.808973164        -8.243880127        -8.236481903         0.038028955
       189           94.500000         0.006549890       196.979935044        -8.243663530        -8.236471320         0.036771059
       190           95.000000         0.006668488       200.546612550        -8.243676141        -8.236469043         0.036864042
       191           95.500000         0.006961272       209.351746822        -8.243916694        -8.236474875         0.036854029
       192           96.000000         0.007272888       218.723217698        -8.244269688        -8.236483382         0.040375948
       193           96.500000         0.007617424       229.084690073        -8.244634271        -8.236491751         0.037541866
       194           97.000000         0.008260524       248.425160443        -8.244907498        -8.236496883         0.036785126
       195           97.500000         0.008407542       252.846537994        -8.245021288        -8.236497932         0.033344984
       196           98.000000         0.008234071       247.629604158        -8.244940770        -8.236494537         0.036758900
       197           98.500000         0.008250779       248.132092522        -8.244702964        -8.236487801         0.033264160
       198           99.000000         0.008187227       246.220818222        -8.244423091        -8.236480359         0.033267021
       199           99.500000         0.007869081       236.652973983        -8.244253895        -8.236475045         0.036795855
       200          100.000000         0.007590543       228.276284152        -8.244215499        -8.236472865         0.036801100
       201          100.500000         0.007500501       225.568375249        -8.244392765        -8.236476066         0.033311844
       202          101.000000         0.007848192       236.024767244        -8.244744595        -8.236484387         0.036890030
       203          101.500000         0.007795905       234.452308285        -8.245066841        -8.236493218         0.033344030
       204          102.000000         0.008194795       246.448425697        -8.245194919        -8.236497996         0.033179998
       205          102.500000         0.008133356       244.600734903        -8.245094420        -8.236496088         0.036900997
       206          103.000000         0.008065444       242.558370021        -8.244776470        -8.236487481         0.036787987
       207          103.500000         0.007583872       228.075656939        -8.244366706        -8.236476207         0.036823988
       208          104.000000         0.007344174       220.867030360        -8.244131198        -8.236471649         0.037047148
       209          104.500000         0.007620798       229.186183746        -8.244116427        -8.236475439         0.033283949
       210          105.000000         0.007884384       237.113195523        -8.244264006        -8.236484719         0.036880970
       211          105.500000         0.007638126       229.707302579        -8.244394794        -8.236492348         0.033238888
       212          106.000000         0.007399231       222.522814591        -8.244458546        -8.236497810         0.036790133
       213          106.500000         0.007464964       224.499646627        -8.244394119        -8.236499661         0.036885023
       214          107.000000         0.006867091       206.519354168        -8.244132536        -8.236497338         0.037328959
       215          107.500000         0.006132932       184.440428695        -8.243748030        -8.236492221         0.036855936
       216          108.000000         0.005654888       170.063823790        -8.243321333        -8.236485951         0.037085056
       217          108.500000         0.005420053       163.001458003        -8.242979330        -8.236481680         0.036794901
       218          109.000000         0.005446122       163.785459783        -8.242784207        -8.236480587         0.036801100
       219          109.500000         0.005234576       157.423461250        -8.242716182        -8.236482654         0.037967920
       220          110.000000         0.005648970       169.885861221        -8.242754510        -8.236486717         0.036815166
       221          110.500000         0.005931535       178.383665241        -8.242897445        -8.236492568         0.033231020
       222          111.000000         0.005856324       176.121782605        -8.243026620        -8.236497891         0.036688805
       223          111.500000         0.006086138       183.033159039        -8.243046489        -8.236500360         0.033495188
       224          112.000000         0.006042885       181.732368853        -8.242970254        -8.236499418         0.033318996
       225          112.500000         0.006099886       183.446597816        -8.242801448        -8.236495274         0.033282995
       226          113.000000         0.005718396       171.973758479        -8.242624599        -8.236490005         0.040347815
       227          113.500000         0.005573258       167.608926219        -8.242534937        -8.236485267         0.036940098