1
Properties=species:S:1:pos:R:3:REF_forces:R:3 REF_energy=-13.7487804074635 REF_free_energy=-13.7487804074635 magmom=1.0 pbc="F F F" config_type=IsolatedAtom
H       -0.04364253       0.07101824       0.05101683       0.00000000       0.00000000       0.00000000
