1
Properties=species:S:1:pos:R:3:REF_forces:R:3 REF_energy=-2045.41865185226 REF_free_energy=-2045.41865185226 magmom=2.0 pbc="F F F" config_type=IsolatedAtom
O       -0.24525292       0.92704947       0.70060630       0.00000000       0.00000000       0.00000000
