13
Lattice="529.1772105638412 0.0 0.0 0.0 529.1772105638412 0.0 0.0 0.0 529.1772105638412" Properties=species:S:1:pos:R:3:forces_component_raw:R:3 ipi_comment="Step:           0  Bead:       0 forces_component_raw{ase}  cell{ase}" pbc="T T T"
H        0.00000000       0.00000000       0.00000000      -0.14545759       0.42808230       0.00028870
H        0.00000000       0.00000000       0.00000000       0.03679013       0.03408503      -0.35797521
H        0.00000000       0.00000000       0.00000000       0.59368081       0.00041425      -0.17403388
H        0.00000000       0.00000000       0.00000000       0.57839357      -0.44565377       0.37244948
H        0.00000000       0.00000000       0.00000000       0.29267018       0.02332849       0.13597903
H        0.00000000       0.00000000       0.00000000      -0.02787608       0.27099153      -0.70664350
H        0.00000000       0.00000000       0.00000000       0.05321227      -0.73119299      -0.35085505
H        0.00000000       0.00000000       0.00000000       0.01742746       0.11715471      -0.30663504
H        0.00000000       0.00000000       0.00000000      -0.29236045      -0.04767367      -0.22677105
O        0.00000000       0.00000000       0.00000000      -1.30825467      -1.10401404       1.03696405
O        0.00000000       0.00000000       0.00000000      -0.50519769       0.38605190      -0.43068714
O        0.00000000       0.00000000       0.00000000       0.04298807       0.76082967       0.92350186
O        0.00000000       0.00000000       0.00000000       0.66398398       0.30759658       0.08441775
13
Lattice="529.1772105638412 0.0 0.0 0.0 529.1772105638412 0.0 0.0 0.0 529.1772105638412" Properties=species:S:1:pos:R:3:forces_component_raw:R:3 ipi_comment="Step:          20  Bead:       0 forces_component_raw{ase}  cell{ase}" pbc="T T T"
H        0.00000000       0.00000000       0.00000000      -0.44978804       0.38004474       0.03141542
H        0.00000000       0.00000000       0.00000000       0.10748248       0.15433934       0.25939201
H        0.00000000       0.00000000       0.00000000       0.41263679      -0.48790885       0.22718210
H        0.00000000       0.00000000       0.00000000       0.30266539      -0.92552390       0.04673318
H        0.00000000       0.00000000       0.00000000      -0.38548472      -0.29685245      -0.31467538
H        0.00000000       0.00000000       0.00000000      -0.14939259       0.82083248      -0.80703734
H        0.00000000       0.00000000       0.00000000       0.09016859      -0.15992672      -0.74971409
H        0.00000000       0.00000000       0.00000000       0.52298017      -0.12378542       0.78396062
H        0.00000000       0.00000000       0.00000000      -0.13029549      -0.04603224      -0.18972361
O        0.00000000       0.00000000       0.00000000      -0.86528967      -0.98502952      -0.08921388
O        0.00000000       0.00000000       0.00000000       0.74151810       1.34458824       0.18609512
O        0.00000000       0.00000000       0.00000000       0.09125686       0.01095843       1.55788871
O        0.00000000       0.00000000       0.00000000      -0.28845787       0.31429588      -0.94230286
13
Lattice="529.1772105638412 0.0 0.0 0.0 529.1772105638412 0.0 0.0 0.0 529.1772105638412" Properties=species:S:1:pos:R:3:forces_component_raw:R:3 ipi_comment="Step:          40  Bead:       0 forces_component_raw{ase}  cell{ase}" pbc="T T T"
H        0.00000000       0.00000000       0.00000000       0.01785441       0.56320504      -0.24810144
H        0.00000000       0.00000000       0.00000000      -0.23772188      -0.14399439      -0.24710504
H        0.00000000       0.00000000       0.00000000       0.22789475       0.38206111      -0.04530379
H        0.00000000       0.00000000       0.00000000       0.53335083      -0.20728146       0.08680450
H        0.00000000       0.00000000       0.00000000      -0.41243720      -1.19508982      -0.35831391
H        0.00000000       0.00000000       0.00000000       0.01550451       0.02492846      -0.59740922
H        0.00000000       0.00000000       0.00000000       0.30301082      -0.57385426      -0.41929251
H        0.00000000       0.00000000       0.00000000       0.38471928      -0.49027364       0.85294378
H        0.00000000       0.00000000       0.00000000       0.06567983      -0.07061021      -0.01083858
O        0.00000000       0.00000000       0.00000000      -0.51367698      -1.58046804       0.44341403
O        0.00000000       0.00000000       0.00000000       0.29959403       1.29414253       0.23356388
O        0.00000000       0.00000000       0.00000000      -0.33954207       1.30360963       1.13806413
O        0.00000000       0.00000000       0.00000000      -0.34423033       0.69362505      -0.82842584
13
Lattice="529.1772105638412 0.0 0.0 0.0 529.1772105638412 0.0 0.0 0.0 529.1772105638412" Properties=species:S:1:pos:R:3:forces_component_raw:R:3 ipi_comment="Step:          60  Bead:       0 forces_component_raw{ase}  cell{ase}" pbc="T T T"
H        0.00000000       0.00000000       0.00000000      -1.03198234       1.04703358      -0.05616410
H        0.00000000       0.00000000       0.00000000       0.05978040      -0.19909345      -0.21158389
H        0.00000000       0.00000000       0.00000000       0.53015629      -0.60187462       0.10313345
H        0.00000000       0.00000000       0.00000000       0.01503362      -0.29144551      -0.05527161
H        0.00000000       0.00000000       0.00000000      -1.17902471      -1.02904992      -0.20534476
H        0.00000000       0.00000000       0.00000000      -0.11445507       0.12389304       0.06239309
H        0.00000000       0.00000000       0.00000000      -0.05198121      -0.00857815      -0.21251066
H        0.00000000       0.00000000       0.00000000       0.80492067      -0.18214425       0.53617684
H        0.00000000       0.00000000       0.00000000      -0.09504417       0.30748603      -0.34758860
O        0.00000000       0.00000000       0.00000000       0.27966635      -0.15621819      -0.09709853
O        0.00000000       0.00000000       0.00000000       1.36961446       1.30931448       0.25587648
O        0.00000000       0.00000000       0.00000000       0.30704794      -0.17225506       0.09163822
O        0.00000000       0.00000000       0.00000000      -0.89373223      -0.14706797       0.13634408
13
Lattice="529.1772105638412 0.0 0.0 0.0 529.1772105638412 0.0 0.0 0.0 529.1772105638412" Properties=species:S:1:pos:R:3:forces_component_raw:R:3 ipi_comment="Step:          80  Bead:       0 forces_component_raw{ase}  cell{ase}" pbc="T T T"
H        0.00000000       0.00000000       0.00000000       0.31965371       1.62848112      -0.06731189
H        0.00000000       0.00000000       0.00000000      -0.35119013      -0.15442860       0.51964380
H        0.00000000       0.00000000       0.00000000       0.44672918       0.84080527      -0.33733166
H        0.00000000       0.00000000       0.00000000      -0.02321780       0.72074328       0.11734007
H        0.00000000       0.00000000       0.00000000      -0.93604899      -1.34815678       0.02105558
H        0.00000000       0.00000000       0.00000000       0.34952200      -0.45444856      -0.09013516
H        0.00000000       0.00000000       0.00000000      -0.31372359       0.08224059       0.81229970
H        0.00000000       0.00000000       0.00000000      -0.27963012      -0.35733243       0.16509650
H        0.00000000       0.00000000       0.00000000       0.26323042      -0.17176498       0.31768588
O        0.00000000       0.00000000       0.00000000      -0.10980607      -0.98483882      -0.34035644
O        0.00000000       0.00000000       0.00000000       0.96667238       0.28926377      -0.04749442
O        0.00000000       0.00000000       0.00000000      -0.22013386      -0.40038601      -0.71660950
O        0.00000000       0.00000000       0.00000000      -0.11205713       0.30982215      -0.35388247
13
Lattice="529.1772105638412 0.0 0.0 0.0 529.1772105638412 0.0 0.0 0.0 529.1772105638412" Properties=species:S:1:pos:R:3:forces_component_raw:R:3 ipi_comment="Step:         100  Bead:       0 forces_component_raw{ase}  cell{ase}" pbc="T T T"
H        0.00000000       0.00000000       0.00000000      -1.07625719       1.13802735      -0.15013644
H        0.00000000       0.00000000       0.00000000      -0.01909030      -0.22644941       0.34444990
H        0.00000000       0.00000000       0.00000000       0.67888248      -1.13662962       0.20931182
H        0.00000000       0.00000000       0.00000000      -1.21921525       1.01982040       0.68306915
H        0.00000000       0.00000000       0.00000000      -0.58222014      -0.77326137       0.42022825
H        0.00000000       0.00000000       0.00000000      -0.20882573      -0.41129528       0.99364951
H        0.00000000       0.00000000       0.00000000      -1.01479490       0.77282650       0.56808051
H        0.00000000       0.00000000       0.00000000      -0.15777252       0.67777206       0.05982475
H        0.00000000       0.00000000       0.00000000      -0.36316586       0.42849181      -0.20200005
O        0.00000000       0.00000000       0.00000000       0.67137475       1.33728782      -0.72125997
O        0.00000000       0.00000000       0.00000000       1.38715001      -0.12431435      -1.08353266
O        0.00000000       0.00000000       0.00000000       1.32399284      -1.46812914      -1.44984963
O        0.00000000       0.00000000       0.00000000       0.57994181      -1.23414678       0.32816486
13
Lattice="529.1772105638412 0.0 0.0 0.0 529.1772105638412 0.0 0.0 0.0 529.1772105638412" Properties=species:S:1:pos:R:3:forces_component_raw:R:3 ipi_comment="Step:         120  Bead:       0 forces_component_raw{ase}  cell{ase}" pbc="T T T"
H        0.00000000       0.00000000       0.00000000       0.57181324       0.55819531      -0.04385078
H        0.00000000       0.00000000       0.00000000      -0.70715014      -0.36786782       0.17643874
H        0.00000000       0.00000000       0.00000000       1.35902706       0.76702604      -0.27210389
H        0.00000000       0.00000000       0.00000000      -1.45348521       1.69233725       0.72161341
H        0.00000000       0.00000000       0.00000000       0.12905870      -0.78892356       0.24007297
H        0.00000000       0.00000000       0.00000000       0.55442690      -0.80045560       0.76114892
H        0.00000000       0.00000000       0.00000000      -0.86785826       0.41289777       1.27557583
H        0.00000000       0.00000000       0.00000000      -1.25780966       0.25242019      -0.20050897
H        0.00000000       0.00000000       0.00000000       0.30331228      -0.22995486       0.06931445
O        0.00000000       0.00000000       0.00000000      -0.77761339      -0.43336220       0.32555223
O        0.00000000       0.00000000       0.00000000       0.64757667      -1.10097612      -1.02955539
O        0.00000000       0.00000000       0.00000000       0.21674373      -0.06907344      -2.07400747
O        0.00000000       0.00000000       0.00000000       1.28195808       0.10773702       0.05030994
13
Lattice="529.1772105638412 0.0 0.0 0.0 529.1772105638412 0.0 0.0 0.0 529.1772105638412" Properties=species:S:1:pos:R:3:forces_component_raw:R:3 ipi_comment="Step:         140  Bead:       0 forces_component_raw{ase}  cell{ase}" pbc="T T T"
H        0.00000000       0.00000000       0.00000000      -0.68492398      -0.04479844      -0.13516805
H        0.00000000       0.00000000       0.00000000       0.01121752      -0.70764869       0.83126954
H        0.00000000       0.00000000       0.00000000       0.44518515      -0.76782055       0.23189967
H        0.00000000       0.00000000       0.00000000      -1.98582995       1.22594882       0.78607746
H        0.00000000       0.00000000       0.00000000       0.20628006       0.38580365      -0.06992645
H        0.00000000       0.00000000       0.00000000       0.14276889      -0.67152227       1.14587947
H        0.00000000       0.00000000       0.00000000      -0.77042338       0.55867678       0.76254076
H        0.00000000       0.00000000       0.00000000       0.35176087       0.76338337      -0.49581904
H        0.00000000       0.00000000       0.00000000      -0.08168513       0.53976981      -0.31377238
O        0.00000000       0.00000000       0.00000000       0.28470210       1.27022985      -0.52128318
O        0.00000000       0.00000000       0.00000000       1.51589125      -1.39886833      -0.78842073
O        0.00000000       0.00000000       0.00000000       0.79858332      -0.12988824      -1.84124842
O        0.00000000       0.00000000       0.00000000      -0.23352672      -1.02326577       0.40797137
13
Lattice="529.1772105638412 0.0 0.0 0.0 529.1772105638412 0.0 0.0 0.0 529.1772105638412" Properties=species:S:1:pos:R:3:forces_component_raw:R:3 ipi_comment="Step:         160  Bead:       0 forces_component_raw{ase}  cell{ase}" pbc="T T T"
H        0.00000000       0.00000000       0.00000000       0.37723871      -0.51763268      -0.17736604
H        0.00000000       0.00000000       0.00000000      -0.90323807       0.07168140       0.68852894
H        0.00000000       0.00000000       0.00000000       0.15798987       0.58434295      -0.49849945
H        0.00000000       0.00000000       0.00000000      -1.54827354       1.97068080       0.11790399
H        0.00000000       0.00000000       0.00000000       0.63358123       0.52217624      -0.47214245
H        0.00000000       0.00000000       0.00000000       0.52511475      -0.95780402       0.69261728
H        0.00000000       0.00000000       0.00000000      -0.26221944       0.17014759       0.69875079
H        0.00000000       0.00000000       0.00000000      -0.36692346       0.13948385      -0.40687393
H        0.00000000       0.00000000       0.00000000      -0.54859331      -0.36637474       0.12777350
O        0.00000000       0.00000000       0.00000000       0.02601468      -0.48937551       0.58239707
O        0.00000000       0.00000000       0.00000000       0.85801774      -2.49139223       0.44757949
O        0.00000000       0.00000000       0.00000000      -0.30424825       0.77424761      -1.19532214
O        0.00000000       0.00000000       0.00000000       1.35553911       0.58981875      -0.60534706
13
Lattice="529.1772105638412 0.0 0.0 0.0 529.1772105638412 0.0 0.0 0.0 529.1772105638412" Properties=species:S:1:pos:R:3:forces_component_raw:R:3 ipi_comment="Step:         180  Bead:       0 forces_component_raw{ase}  cell{ase}" pbc="T T T"
H        0.00000000       0.00000000       0.00000000       0.43424571      -0.19277509       0.03854625
H        0.00000000       0.00000000       0.00000000       0.39969703      -0.44156250       0.32303498
H        0.00000000       0.00000000       0.00000000       0.25912087      -0.31136712       0.43368766
H        0.00000000       0.00000000       0.00000000      -1.24196181       1.06692532      -0.00425236
H        0.00000000       0.00000000       0.00000000       0.50800116       1.05530540      -0.36836996
H        0.00000000       0.00000000       0.00000000      -0.08052221       0.08899380      -0.04175844
H        0.00000000       0.00000000       0.00000000      -0.03396708       0.03474341      -0.10129327
H        0.00000000       0.00000000       0.00000000       0.49402908       0.10885016      -0.21675756
H        0.00000000       0.00000000       0.00000000      -0.40110801       0.18583018      -0.39464548
O        0.00000000       0.00000000       0.00000000      -1.35430042       0.52300825      -0.48214720
O        0.00000000       0.00000000       0.00000000       1.00714642      -1.99971110       0.34790405
O        0.00000000       0.00000000       0.00000000       0.02204481      -0.03827759       0.10049433
O        0.00000000       0.00000000       0.00000000      -0.01242555      -0.07996311       0.36555699
13
Lattice="529.1772105638412 0.0 0.0 0.0 529.1772105638412 0.0 0.0 0.0 529.1772105638412" Properties=species:S:1:pos:R:3:forces_component_raw:R:3 ipi_comment="Step:         200  Bead:       0 forces_component_raw{ase}  cell{ase}" pbc="T T T"
H        0.00000000       0.00000000       0.00000000      -0.59770261      -0.06488716       0.22181439
H        0.00000000       0.00000000       0.00000000      -0.70331341      -0.07600236      -0.08156114
H        0.00000000       0.00000000       0.00000000       0.37927414       0.04492967      -0.43533668
H        0.00000000       0.00000000       0.00000000      -0.06904366       0.89943980      -0.17930633
H        0.00000000       0.00000000       0.00000000       0.77971173       0.76802805      -0.29504491
H        0.00000000       0.00000000       0.00000000      -0.17683614       0.15407549      -0.61587639
H        0.00000000       0.00000000       0.00000000       0.09425186      -0.19863025       0.11391994
H        0.00000000       0.00000000       0.00000000      -0.19548914      -0.44623444       0.39069732
H        0.00000000       0.00000000       0.00000000      -0.49318763      -0.38082396       0.21525482
O        0.00000000       0.00000000       0.00000000       0.62411696       0.23308850       0.01003090
O        0.00000000       0.00000000       0.00000000      -0.64679122      -1.86361441       0.60869396
O        0.00000000       0.00000000       0.00000000       0.20182240       0.07122730       0.47749849
O        0.00000000       0.00000000       0.00000000       0.80318674       0.85940375      -0.43078437
13
Lattice="529.1772105638412 0.0 0.0 0.0 529.1772105638412 0.0 0.0 0.0 529.1772105638412" Properties=species:S:1:pos:R:3:forces_component_raw:R:3 ipi_comment="Step:         220  Bead:       0 forces_component_raw{ase}  cell{ase}" pbc="T T T"
H        0.00000000       0.00000000       0.00000000       0.23361819       0.30104699      -0.32508335
H        0.00000000       0.00000000       0.00000000       0.40839902      -0.55825897       0.26850355
H        0.00000000       0.00000000       0.00000000       0.19781027       0.22709873      -0.00606858
H        0.00000000       0.00000000       0.00000000       0.11977959       0.20935262      -0.09325211
H        0.00000000       0.00000000       0.00000000      -0.15756891      -0.00265823      -0.03680839
H        0.00000000       0.00000000       0.00000000      -0.41395466       0.28095674      -0.55872163
H        0.00000000       0.00000000       0.00000000       0.07333035      -0.02448135      -0.34217979
H        0.00000000       0.00000000       0.00000000       1.04301014      -0.43705410       0.27436733
H        0.00000000       0.00000000       0.00000000      -1.04306100       0.33396325      -0.42263205
O        0.00000000       0.00000000       0.00000000      -0.55272531       0.56374627      -0.65849283
O        0.00000000       0.00000000       0.00000000       0.07589339      -0.41692070       0.23162094
O        0.00000000       0.00000000       0.00000000       0.40777472      -0.48173553       1.03908741
O        0.00000000       0.00000000       0.00000000      -0.39230577       0.00494427       0.62965949
13
Lattice="529.1772105638412 0.0 0.0 0.0 529.1772105638412 0.0 0.0 0.0 529.1772105638412" Properties=species:S:1:pos:R:3:forces_component_raw:R:3 ipi_comment="Step:         240  Bead:       0 forces_component_raw{ase}  cell{ase}" pbc="T T T"
H        0.00000000       0.00000000       0.00000000      -0.87482781       0.02241601       0.03340738
H        0.00000000       0.00000000       0.00000000      -0.81398957       0.21386294       0.59481387
H        0.00000000       0.00000000       0.00000000       1.11938849      -0.38567717      -0.25393675
H        0.00000000       0.00000000       0.00000000       0.67306566      -0.88540665       0.43984230
H        0.00000000       0.00000000       0.00000000      -0.48927051      -0.36199984       0.19257554
H        0.00000000       0.00000000       0.00000000      -0.39632444       0.25896024      -0.41236162
H        0.00000000       0.00000000       0.00000000      -0.01247924      -0.03643551      -0.47230493
H        0.00000000       0.00000000       0.00000000      -0.07119851      -0.74785510       0.61815349
H        0.00000000       0.00000000       0.00000000      -0.10752740      -0.28524381       0.11433227
O        0.00000000       0.00000000       0.00000000       0.85629025       0.76695669      -0.98192602
O        0.00000000       0.00000000       0.00000000      -0.67839072       1.26767389      -0.53883593
O        0.00000000       0.00000000       0.00000000       0.59706587      -0.44804309       1.02904344
O        0.00000000       0.00000000       0.00000000       0.19819793       0.62079140      -0.36280304
13
Lattice="529.1772105638412 0.0 0.0 0.0 529.1772105638412 0.0 0.0 0.0 529.1772105638412" Properties=species:S:1:pos:R:3:forces_component_raw:R:3 ipi_comment="Step:         260  Bead:       0 forces_component_raw{ase}  cell{ase}" pbc="T T T"
H        0.00000000       0.00000000       0.00000000       0.12588537       0.90725032      -0.37403896
H        0.00000000       0.00000000       0.00000000      -0.02229461      -0.67139674      -0.03733406
H        0.00000000       0.00000000       0.00000000       0.79350860       0.25487245      -0.07125527
H        0.00000000       0.00000000       0.00000000       1.37691263      -0.69417446       0.51134375
H        0.00000000       0.00000000       0.00000000       0.03496087      -0.79150622       0.56965621
H        0.00000000       0.00000000       0.00000000       0.26912370      -0.34778941       0.39308601
H        0.00000000       0.00000000       0.00000000       0.09017499      -0.34405121      -0.31292671
H        0.00000000       0.00000000       0.00000000       0.38109817      -0.43803397       0.16088335
H        0.00000000       0.00000000       0.00000000       0.44208002       0.21240780      -0.28601984
O        0.00000000       0.00000000       0.00000000      -0.48570495      -0.67329218       0.43108715
O        0.00000000       0.00000000       0.00000000      -1.90001777       1.50466436      -1.10311635
O        0.00000000       0.00000000       0.00000000      -0.36267532       0.72406567      -0.07331079
O        0.00000000       0.00000000       0.00000000      -0.74305169       0.35698359       0.19194550
13
Lattice="529.1772105638412 0.0 0.0 0.0 529.1772105638412 0.0 0.0 0.0 529.1772105638412" Properties=species:S:1:pos:R:3:forces_component_raw:R:3 ipi_comment="Step:         280  Bead:       0 forces_component_raw{ase}  cell{ase}" pbc="T T T"
H        0.00000000       0.00000000       0.00000000      -1.23794118       1.72513260       0.17786002
H        0.00000000       0.00000000       0.00000000      -0.26166060      -0.30993492       0.33910437
H        0.00000000       0.00000000       0.00000000       1.27545298      -0.59736696      -0.05209439
H        0.00000000       0.00000000       0.00000000       0.14109424      -0.32084009       0.24714347
H        0.00000000       0.00000000       0.00000000      -0.43871362      -0.80583362       0.66700984
H        0.00000000       0.00000000       0.00000000       0.16315530       0.05195387       0.43665482
H        0.00000000       0.00000000       0.00000000       0.02040431      -0.18905370      -0.38118048
H        0.00000000       0.00000000       0.00000000      -0.08128444      -0.21962970       0.01575233
H        0.00000000       0.00000000       0.00000000       0.03730083      -0.16654774       0.01568014
O        0.00000000       0.00000000       0.00000000       0.63418055      -1.50764515       0.09749011
O        0.00000000       0.00000000       0.00000000      -0.34125208       1.19479163      -0.92629907
O        0.00000000       0.00000000       0.00000000      -0.17787576       0.39550120      -0.16106970
O        0.00000000       0.00000000       0.00000000       0.26713948       0.74947259      -0.47605146
13
Lattice="529.1772105638412 0.0 0.0 0.0 529.1772105638412 0.0 0.0 0.0 529.1772105638412" Properties=species:S:1:pos:R:3:forces_component_raw:R:3 ipi_comment="Step:         300  Bead:       0 forces_component_raw{ase}  cell{ase}" pbc="T T T"
H        0.00000000       0.00000000       0.00000000      -0.21291794       0.90226314      -0.27810769
H        0.00000000       0.00000000       0.00000000      -0.31380506      -0.62687320       0.46641059
H        0.00000000       0.00000000       0.00000000       1.83600165       0.23132959      -0.31456950
H        0.00000000       0.00000000       0.00000000      -0.05967737       0.28781498      -0.37964345
H        0.00000000       0.00000000       0.00000000      -0.04602207      -0.76495403       0.71289444
H        0.00000000       0.00000000       0.00000000      -0.02400561       0.04069933       0.09201130
H        0.00000000       0.00000000       0.00000000      -0.07881056      -0.02026937      -0.28654220
H        0.00000000       0.00000000       0.00000000      -0.05550261       0.91072133      -0.27053961
H        0.00000000       0.00000000       0.00000000       0.65462580      -0.01748781      -0.24627675
O        0.00000000       0.00000000       0.00000000      -1.50364501      -1.35407492       0.95422599
O        0.00000000       0.00000000       0.00000000      -0.29529716       0.37699083      -0.21984064
O        0.00000000       0.00000000       0.00000000       0.12379019       0.16791881       0.30962759
O        0.00000000       0.00000000       0.00000000      -0.02473428      -0.13407869      -0.53965006
13
Lattice="529.1772105638412 0.0 0.0 0.0 529.1772105638412 0.0 0.0 0.0 529.1772105638412" Properties=species:S:1:pos:R:3:forces_component_raw:R:3 ipi_comment="Step:         320  Bead:       0 forces_component_raw{ase}  cell{ase}" pbc="T T T"
H        0.00000000       0.00000000       0.00000000      -0.14257969       0.10346494      -0.01593753
H        0.00000000       0.00000000       0.00000000      -0.21600974      -0.43489845       0.48100888
H        0.00000000       0.00000000       0.00000000       1.40722219      -0.13717700      -0.12456806
H        0.00000000       0.00000000       0.00000000      -0.96528224       0.53189924      -0.33885129
H        0.00000000       0.00000000       0.00000000       0.03373007       0.43125054      -0.49848531
H        0.00000000       0.00000000       0.00000000      -0.10668367      -0.00607993      -0.03715630
H        0.00000000       0.00000000       0.00000000      -0.07696714       0.02608381       0.10325851
H        0.00000000       0.00000000       0.00000000       0.03243481       1.16147927       0.20082212
H        0.00000000       0.00000000       0.00000000       0.87753039      -0.34283214      -0.31919320
O        0.00000000       0.00000000       0.00000000      -1.45899546       0.16018764       0.19979869
O        0.00000000       0.00000000       0.00000000       0.80237159      -0.92899755       0.91434201
O        0.00000000       0.00000000       0.00000000       0.30084380      -0.11299847      -0.08568301
O        0.00000000       0.00000000       0.00000000      -0.48761490      -0.45138188      -0.47935551
13
Lattice="529.1772105638412 0.0 0.0 0.0 529.1772105638412 0.0 0.0 0.0 529.1772105638412" Properties=species:S:1:pos:R:3:forces_component_raw:R:3 ipi_comment="Step:         340  Bead:       0 forces_component_raw{ase}  cell{ase}" pbc="T T T"
H        0.00000000       0.00000000       0.00000000      -0.29822252       0.21639532       0.25100470
H        0.00000000       0.00000000       0.00000000      -0.74610926      -0.35375806       0.56771944
H        0.00000000       0.00000000       0.00000000       1.10370755      -0.14881751      -0.20189357
H        0.00000000       0.00000000       0.00000000      -0.52478677       1.11252460      -1.01649457
H        0.00000000       0.00000000       0.00000000       0.98181796       0.33646573      -0.91831419
H        0.00000000       0.00000000       0.00000000       0.16994073      -0.19327458      -0.01236675
H        0.00000000       0.00000000       0.00000000      -0.00989260       0.25932626       0.69369764
H        0.00000000       0.00000000       0.00000000       0.22156233       0.34497648       0.17484473
H        0.00000000       0.00000000       0.00000000       1.07458956      -0.52543391      -0.36132780
O        0.00000000       0.00000000       0.00000000      -0.13237680       0.77553661      -0.62142520
O        0.00000000       0.00000000       0.00000000      -0.93892392      -1.42326142       2.04200361
O        0.00000000       0.00000000       0.00000000       0.13617776      -0.65702218      -0.68434261
O        0.00000000       0.00000000       0.00000000      -1.03748402       0.25634265       0.08689458
13
Lattice="529.1772105638412 0.0 0.0 0.0 529.1772105638412 0.0 0.0 0.0 529.1772105638412" Properties=species:S:1:pos:R:3:forces_component_raw:R:3 ipi_comment="Step:         360  Bead:       0 forces_component_raw{ase}  cell{ase}" pbc="T T T"
H        0.00000000       0.00000000       0.00000000       0.01642855       0.33133115      -0.53482211
H        0.00000000       0.00000000       0.00000000       0.11161113      -0.62946198      -0.12257235
H        0.00000000       0.00000000       0.00000000       0.61610257       0.36530586      -0.16800429
H        0.00000000       0.00000000       0.00000000      -1.05942086       1.05368255      -0.41438192
H        0.00000000       0.00000000       0.00000000       0.02499807       0.43429008      -0.89585726
H        0.00000000       0.00000000       0.00000000      -0.04438816      -0.17488618       0.02557834
H        0.00000000       0.00000000       0.00000000      -0.21889201       0.63455681       0.97651150