13
Lattice="529.1772105638412 0.0 0.0 0.0 529.1772105638412 0.0 0.0 0.0 529.1772105638412" Properties=species:S:1:pos:R:3:forces_component_raw:R:3 ipi_comment="Step:           0  Bead:       0 forces_component_raw{ase}  cell{ase}" pbc="T T T"
H        0.00000000       0.00000000       0.00000000      -0.35257533       1.47411749       0.32363731
H        0.00000000       0.00000000       0.00000000       0.15942928       0.23881681       0.03490884
H        0.00000000       0.00000000       0.00000000       2.03133077      -0.13912041       0.00431945
H        0.00000000       0.00000000       0.00000000       1.06350751      -0.57873066       0.51934661
H        0.00000000       0.00000000       0.00000000       0.97575043       0.10941831       0.29811025
H        0.00000000       0.00000000       0.00000000      -0.02316145       0.85136171      -0.89445010
H        0.00000000       0.00000000       0.00000000       0.12295534      -0.44411181      -0.31624791
H        0.00000000       0.00000000       0.00000000      -0.11130867      -0.05133832      -0.05101643
H        0.00000000       0.00000000       0.00000000      -0.43363007      -0.20837155      -0.01573534
O        0.00000000       0.00000000       0.00000000      -2.32236033      -2.19562044      -0.23200057
O        0.00000000       0.00000000       0.00000000      -1.37387625       0.28669236      -0.53347127
O        0.00000000       0.00000000       0.00000000      -0.38945732       0.22667919       0.97349352
O        0.00000000       0.00000000       0.00000000       0.65339607       0.43020732      -0.11089436
13
Lattice="529.1772105638412 0.0 0.0 0.0 529.1772105638412 0.0 0.0 0.0 529.1772105638412" Properties=species:S:1:pos:R:3:forces_component_raw:R:3 ipi_comment="Step:          20  Bead:       0 forces_component_raw{ase}  cell{ase}" pbc="T T T"
H        0.00000000       0.00000000       0.00000000       0.19119118      -2.33349765      -0.27250854
H        0.00000000       0.00000000       0.00000000       0.02729771       0.04106347       0.28484473
H        0.00000000       0.00000000       0.00000000      -3.80838618      -0.28686467       0.35442265
H        0.00000000       0.00000000       0.00000000      -0.31961172      -1.11996603      -0.18088069
H        0.00000000       0.00000000       0.00000000      -0.96791232      -0.12211422      -0.48094028
H        0.00000000       0.00000000       0.00000000      -0.16553826       0.39479580      -0.58676496
H        0.00000000       0.00000000       0.00000000       0.16554503      -0.23419857      -0.89192294
H        0.00000000       0.00000000       0.00000000       0.25317840      -0.30255464       1.10463156
H        0.00000000       0.00000000       0.00000000      -0.06816157      -0.04985328       0.06765935
O        0.00000000       0.00000000       0.00000000       0.20905568      -0.08728637      -0.04816345
O        0.00000000       0.00000000       0.00000000       4.67636147       1.24997818       0.39693052
O        0.00000000       0.00000000       0.00000000      -0.23227475       2.38162429       1.66620418
O        0.00000000       0.00000000       0.00000000       0.03925534       0.46887370      -1.41351214
13
Lattice="529.1772105638412 0.0 0.0 0.0 529.1772105638412 0.0 0.0 0.0 529.1772105638412" Properties=species:S:1:pos:R:3:forces_component_raw:R:3 ipi_comment="Step:          40  Bead:       0 forces_component_raw{ase}  cell{ase}" pbc="T T T"
H        0.00000000       0.00000000       0.00000000      -0.11199442       0.86802746       0.08309343
H        0.00000000       0.00000000       0.00000000      -0.21306171      -0.19476273      -0.24751466
H        0.00000000       0.00000000       0.00000000       1.48233353       0.06729136      -0.03113689
H        0.00000000       0.00000000       0.00000000       1.15426124      -0.16181412       0.14398912
H        0.00000000       0.00000000       0.00000000      -0.21971620      -1.36644814      -0.33051294
H        0.00000000       0.00000000       0.00000000       0.12088290      -0.14331882      -0.03508672
H        0.00000000       0.00000000       0.00000000       0.27180977      -0.39501672      -0.20440838
H        0.00000000       0.00000000       0.00000000       0.26207973      -0.59887923       1.35773140
H        0.00000000       0.00000000       0.00000000      -0.46983448      -0.34432119       0.25108049
O        0.00000000       0.00000000       0.00000000      -1.82869800      -1.74054737       0.17186994
O        0.00000000       0.00000000       0.00000000      -0.19958664       1.24635963       0.29387928
O        0.00000000       0.00000000       0.00000000      -0.60392667       1.62065200       0.21227432
O        0.00000000       0.00000000       0.00000000       0.35545097       1.14277787      -1.66525840
13
Lattice="529.1772105638412 0.0 0.0 0.0 529.1772105638412 0.0 0.0 0.0 529.1772105638412" Properties=species:S:1:pos:R:3:forces_component_raw:R:3 ipi_comment="Step:          60  Bead:       0 forces_component_raw{ase}  cell{ase}" pbc="T T T"
H        0.00000000       0.00000000       0.00000000       0.02351546      -0.42986830       0.23096090
H        0.00000000       0.00000000       0.00000000       0.20666505      -0.46528751       0.70065320
H        0.00000000       0.00000000       0.00000000      -0.65833078       0.24994649       0.01027648
H        0.00000000       0.00000000       0.00000000      -0.02611839      -0.09272809      -0.06447764
H        0.00000000       0.00000000       0.00000000      -1.19232972      -0.17954981      -0.06110611
H        0.00000000       0.00000000       0.00000000      -0.05077550      -0.08230076       0.98166058
H        0.00000000       0.00000000       0.00000000       0.00017870       0.23527739      -0.42770148
H        0.00000000       0.00000000       0.00000000       0.24067794      -0.17987430       0.45891124
H        0.00000000       0.00000000       0.00000000      -0.19313930      -0.08377657       0.07536219
O        0.00000000       0.00000000       0.00000000       0.99514581       1.48155468      -1.74959734
O        0.00000000       0.00000000       0.00000000       1.62106935      -0.21219272       0.12713892
O        0.00000000       0.00000000       0.00000000      -0.09072726       0.12410784      -0.70760903
O        0.00000000       0.00000000       0.00000000      -0.87583136      -0.36530834       0.42552809
13
Lattice="529.1772105638412 0.0 0.0 0.0 529.1772105638412 0.0 0.0 0.0 529.1772105638412" Properties=species:S:1:pos:R:3:forces_component_raw:R:3 ipi_comment="Step:          80  Bead:       0 forces_component_raw{ase}  cell{ase}" pbc="T T T"
H        0.00000000       0.00000000       0.00000000       0.17378162      -0.66604919       0.01936704
H        0.00000000       0.00000000       0.00000000      -0.22605193       0.92851959       0.14319411
H        0.00000000       0.00000000       0.00000000       2.27062943       0.18837677       0.15172333
H        0.00000000       0.00000000       0.00000000       0.70552600       0.97839179       0.23169150
H        0.00000000       0.00000000       0.00000000       0.04510227      -0.87258177      -0.14290015
H        0.00000000       0.00000000       0.00000000       0.73370806      -0.72964375       0.50489861
H        0.00000000       0.00000000       0.00000000       0.27246219      -0.18088004       0.48809554
H        0.00000000       0.00000000       0.00000000      -0.98759805      -0.17311200      -0.13137073
H        0.00000000       0.00000000       0.00000000       0.31736575      -0.34586379       0.51893631
O        0.00000000       0.00000000       0.00000000      -2.75462282       0.92316646      -1.52002581
O        0.00000000       0.00000000       0.00000000       0.56768274      -0.33786056      -0.18525942
O        0.00000000       0.00000000       0.00000000      -1.18094030       0.90434043      -0.90954944
O        0.00000000       0.00000000       0.00000000       0.06295506      -0.61680395       0.83119911
13
Lattice="529.1772105638412 0.0 0.0 0.0 529.1772105638412 0.0 0.0 0.0 529.1772105638412" Properties=species:S:1:pos:R:3:forces_component_raw:R:3 ipi_comment="Step:         100  Bead:       0 forces_component_raw{ase}  cell{ase}" pbc="T T T"
H        0.00000000       0.00000000       0.00000000       0.54371859       0.76175739       0.23848496
H        0.00000000       0.00000000       0.00000000       0.21332118      -0.62425373       0.36438709
H        0.00000000       0.00000000       0.00000000       0.17671119       0.30951321       0.38138553
H        0.00000000       0.00000000       0.00000000      -0.68918249       0.82108124       0.53377198
H        0.00000000       0.00000000       0.00000000      -0.21424665       0.23055715       0.10355796
H        0.00000000       0.00000000       0.00000000       0.00113616       0.57360082       1.61644984
H        0.00000000       0.00000000       0.00000000      -0.41765168       0.72622015      -0.38024889
H        0.00000000       0.00000000       0.00000000      -0.69943522       0.84800583      -0.50438125
H        0.00000000       0.00000000       0.00000000      -0.03874819       0.29758725      -0.07131421
O        0.00000000       0.00000000       0.00000000      -0.86191255       0.56451320      -1.25097638
O        0.00000000       0.00000000       0.00000000       1.60166502      -1.37670714      -0.70291971
O        0.00000000       0.00000000       0.00000000      -0.04942074      -1.62473477      -1.55218164
O        0.00000000       0.00000000       0.00000000       0.43404539      -1.50714060       1.22398473
13
Lattice="529.1772105638412 0.0 0.0 0.0 529.1772105638412 0.0 0.0 0.0 529.1772105638412" Properties=species:S:1:pos:R:3:forces_component_raw:R:3 ipi_comment="Step:         120  Bead:       0 forces_component_raw{ase}  cell{ase}" pbc="T T T"
H        0.00000000       0.00000000       0.00000000      -0.44715001      -0.74210699       0.17527833
H        0.00000000       0.00000000       0.00000000      -0.05385686       0.39135795      -0.56657297
H        0.00000000       0.00000000       0.00000000      -1.00418365      -0.24637315      -0.35603361
H        0.00000000       0.00000000       0.00000000      -1.02894255       1.68278151       0.54790434
H        0.00000000       0.00000000       0.00000000       1.13135121      -0.07112003      -0.20707745
H        0.00000000       0.00000000       0.00000000       1.13901026      -0.80699621       0.98164820
H        0.00000000       0.00000000       0.00000000       0.22531378      -0.09561233       0.56382021
H        0.00000000       0.00000000       0.00000000      -1.53947434       0.57837743      -0.46290237
H        0.00000000       0.00000000       0.00000000       0.67759201      -0.09863683       0.45508156
O        0.00000000       0.00000000       0.00000000       0.11173017      -1.04076020       0.82344331
O        0.00000000       0.00000000       0.00000000       1.07936254      -1.31336023      -0.21704968
O        0.00000000       0.00000000       0.00000000      -1.47554761       2.22704274      -1.55683103
O        0.00000000       0.00000000       0.00000000       1.18479505      -0.46459366      -0.18070882
13
Lattice="529.1772105638412 0.0 0.0 0.0 529.1772105638412 0.0 0.0 0.0 529.1772105638412" Properties=species:S:1:pos:R:3:forces_component_raw:R:3 ipi_comment="Step:         140  Bead:       0 forces_component_raw{ase}  cell{ase}" pbc="T T T"
H        0.00000000       0.00000000       0.00000000       0.40472070       0.60530103      -0.23617516
H        0.00000000       0.00000000       0.00000000       0.40679728       0.05440779       0.41317943
H        0.00000000       0.00000000       0.00000000       0.12063881       0.85968738       0.74993160
H        0.00000000       0.00000000       0.00000000      -1.12292067       1.24846437       1.09040462
H        0.00000000       0.00000000       0.00000000       0.49498033       1.33157098      -0.33161797
H        0.00000000       0.00000000       0.00000000       0.32913942      -0.20671598       1.50530100
H        0.00000000       0.00000000       0.00000000      -0.56009847       0.89067716       0.11011665
H        0.00000000       0.00000000       0.00000000       0.08429016       0.62357573      -0.00456960
H        0.00000000       0.00000000       0.00000000       0.08582868       0.41668732       0.45066525
O        0.00000000       0.00000000       0.00000000       0.19004865      -1.04256832      -0.98634547
O        0.00000000       0.00000000       0.00000000       0.47960865      -3.08228780      -1.17668821
O        0.00000000       0.00000000       0.00000000      -0.26018075      -0.21232588      -1.34455168
O        0.00000000       0.00000000       0.00000000      -0.65285279      -1.48647379      -0.23965044
13
Lattice="529.1772105638412 0.0 0.0 0.0 529.1772105638412 0.0 0.0 0.0 529.1772105638412" Properties=species:S:1:pos:R:3:forces_component_raw:R:3 ipi_comment="Step:         160  Bead:       0 forces_component_raw{ase}  cell{ase}" pbc="T T T"
H        0.00000000       0.00000000       0.00000000       0.09509728      -0.12275923       0.32282010
H        0.00000000       0.00000000       0.00000000      -0.13963188       0.55613226      -0.24231858
H        0.00000000       0.00000000       0.00000000      -0.31829083      -0.59461979       0.11035831
H        0.00000000       0.00000000       0.00000000      -0.33993616       1.94176040       0.22297057
H        0.00000000       0.00000000       0.00000000       1.31064901       0.31434533      -0.56164729
H        0.00000000       0.00000000       0.00000000       0.98956979      -0.72171570       0.70089183
H        0.00000000       0.00000000       0.00000000      -0.06535889       0.17581514       0.87833957
H        0.00000000       0.00000000       0.00000000      -0.29556772      -0.14567912       0.18636794
H        0.00000000       0.00000000       0.00000000      -0.12180302      -0.28937845       0.34053546
O        0.00000000       0.00000000       0.00000000       0.28029551      -0.23741509       0.09710183
O        0.00000000       0.00000000       0.00000000      -0.82571943      -1.81564548       0.19289088
O        0.00000000       0.00000000       0.00000000      -1.05524410       0.66971588      -1.67443746
O        0.00000000       0.00000000       0.00000000       0.48594044       0.26944384      -0.57387316
13
Lattice="529.1772105638412 0.0 0.0 0.0 529.1772105638412 0.0 0.0 0.0 529.1772105638412" Properties=species:S:1:pos:R:3:forces_component_raw:R:3 ipi_comment="Step:         180  Bead:       0 forces_component_raw{ase}  cell{ase}" pbc="T T T"
H        0.00000000       0.00000000       0.00000000       0.03458172       0.02752345      -0.17374537
H        0.00000000       0.00000000       0.00000000       0.07497862      -0.11343870      -0.34907578
H        0.00000000       0.00000000       0.00000000      -0.71619143       0.74380326      -0.34073510
H        0.00000000       0.00000000       0.00000000      -0.40011978       0.60819371       0.51183271
H        0.00000000       0.00000000       0.00000000       0.20716067       1.18864853      -0.26710367
H        0.00000000       0.00000000       0.00000000      -0.30480393       0.38873729       0.04768692
H        0.00000000       0.00000000       0.00000000      -0.38075568       0.61710015       0.15271358
H        0.00000000       0.00000000       0.00000000       0.44873787      -0.32841831       0.53026623
H        0.00000000       0.00000000       0.00000000      -0.49914989       0.13702613      -0.13954203
O        0.00000000       0.00000000       0.00000000      -0.17523990       0.41448003       0.35734193
O        0.00000000       0.00000000       0.00000000       0.79529572      -2.41035354      -0.03034762
O        0.00000000       0.00000000       0.00000000       0.78876624      -1.29852655      -0.14203415
O        0.00000000       0.00000000       0.00000000       0.12673976       0.02522456      -0.15725766
13
Lattice="529.1772105638412 0.0 0.0 0.0 529.1772105638412 0.0 0.0 0.0 529.1772105638412" Properties=species:S:1:pos:R:3:forces_component_raw:R:3 ipi_comment="Step:         200  Bead:       0 forces_component_raw{ase}  cell{ase}" pbc="T T T"
H        0.00000000       0.00000000       0.00000000       0.58704938      -1.24567165       0.66181006
H        0.00000000       0.00000000       0.00000000       0.65177423       0.70149902      -0.07723624
H        0.00000000       0.00000000       0.00000000      -0.49142724      -0.69666022       0.62993723
H        0.00000000       0.00000000       0.00000000       0.53272450       0.16385343      -0.33352945
H        0.00000000       0.00000000       0.00000000       0.48993907      -0.61986337      -0.06933975
H        0.00000000       0.00000000       0.00000000      -0.61906055       0.41028358      -1.18072210
H        0.00000000       0.00000000       0.00000000       0.16245716       0.26898679       0.82000049
H        0.00000000       0.00000000       0.00000000       0.39164109      -0.61126694       1.11747525
H        0.00000000       0.00000000       0.00000000      -0.91699098      -0.20757935       0.49572402
O        0.00000000       0.00000000       0.00000000      -0.54823780       1.34866186      -1.37281221
O        0.00000000       0.00000000       0.00000000      -0.53613980       0.83942248       0.11158683
O        0.00000000       0.00000000       0.00000000       0.35061589      -0.65008708       0.22706886
O        0.00000000       0.00000000       0.00000000      -0.05434495       0.29842144      -1.02996298
13
Lattice="529.1772105638412 0.0 0.0 0.0 529.1772105638412 0.0 0.0 0.0 529.1772105638412" Properties=species:S:1:pos:R:3:forces_component_raw:R:3 ipi_comment="Step:         220  Bead:       0 forces_component_raw{ase}  cell{ase}" pbc="T T T"
H        0.00000000       0.00000000       0.00000000       0.68879251      -0.58369539      -0.35940181
H        0.00000000       0.00000000       0.00000000       0.11050812       0.49522543      -0.57201069
H        0.00000000       0.00000000       0.00000000      -0.18824680       0.45521184      -0.04516859
H        0.00000000       0.00000000       0.00000000       0.27624431      -0.64783414       0.06272909
H        0.00000000       0.00000000       0.00000000      -0.72989455      -0.34885563       0.52735781
H        0.00000000       0.00000000       0.00000000      -1.08125601       0.81111226      -1.14589112
H        0.00000000       0.00000000       0.00000000      -0.11262835       0.64418959       0.43846421
H        0.00000000       0.00000000       0.00000000       0.99959787      -0.58754898       0.96855895
H        0.00000000       0.00000000       0.00000000      -1.89574848       0.48403942       0.04350008
O        0.00000000       0.00000000       0.00000000      -0.11295700       0.54965113      -0.73417401
O        0.00000000       0.00000000       0.00000000       0.76509056       0.72044316      -0.52055232
O        0.00000000       0.00000000       0.00000000       1.01186115      -1.10108844       0.91802674
O        0.00000000       0.00000000       0.00000000       0.26863666      -0.89085026       0.41856166
13
Lattice="529.1772105638412 0.0 0.0 0.0 529.1772105638412 0.0 0.0 0.0 529.1772105638412" Properties=species:S:1:pos:R:3:forces_component_raw:R:3 ipi_comment="Step:         240  Bead:       0 forces_component_raw{ase}  cell{ase}" pbc="T T T"
H        0.00000000       0.00000000       0.00000000       0.25566734      -1.54104567       0.14161820
H        0.00000000       0.00000000       0.00000000       0.22534903      -0.32330596       0.00886623
H        0.00000000       0.00000000       0.00000000       0.30327629      -0.12277712      -0.01336065
H        0.00000000       0.00000000       0.00000000       0.89831491      -0.94222699      -0.16434354
H        0.00000000       0.00000000       0.00000000       0.06691612      -0.73032854       0.70414799
H        0.00000000       0.00000000       0.00000000      -0.84766964       0.82353971      -1.22423609
H        0.00000000       0.00000000       0.00000000      -0.04029129       0.90480507       0.37119269
H        0.00000000       0.00000000       0.00000000       0.33092974      -0.32434909       1.15083072
H        0.00000000       0.00000000       0.00000000      -1.35556512       0.24444253       0.83749726
O        0.00000000       0.00000000       0.00000000      -0.55901924       0.17030681      -0.46670428
O        0.00000000       0.00000000       0.00000000      -0.20543117       1.73713311      -0.67207144
O        0.00000000       0.00000000       0.00000000       0.29265012      -0.01664202       0.89190255
O        0.00000000       0.00000000       0.00000000       0.63487290       0.12044814      -1.56533963
13
Lattice="529.1772105638412 0.0 0.0 0.0 529.1772105638412 0.0 0.0 0.0 529.1772105638412" Properties=species:S:1:pos:R:3:forces_component_raw:R:3 ipi_comment="Step:         260  Bead:       0 forces_component_raw{ase}  cell{ase}" pbc="T T T"
H        0.00000000       0.00000000       0.00000000       0.18070723       0.12686916       0.21598494
H        0.00000000       0.00000000       0.00000000       0.17868925       0.39445686      -0.14224898
H        0.00000000       0.00000000       0.00000000       0.00581501      -0.22955196       0.32939327
H        0.00000000       0.00000000       0.00000000       0.33013736      -0.27691518      -0.05669026
H        0.00000000       0.00000000       0.00000000       0.15427061      -0.60912353       0.72652526
H        0.00000000       0.00000000       0.00000000      -0.39658567       0.13729249      -0.45642493
H        0.00000000       0.00000000       0.00000000       0.30861785       0.45763106       0.51768302
H        0.00000000       0.00000000       0.00000000       0.10968515      -0.40492361       0.41998258
H        0.00000000       0.00000000       0.00000000      -0.86637942       0.14150663       0.40003056
O        0.00000000       0.00000000       0.00000000      -0.64853531      -1.07198570      -0.03661336
O        0.00000000       0.00000000       0.00000000      -0.04709280       1.13405629      -0.92048088
O        0.00000000       0.00000000       0.00000000      -0.17934774      -0.13892485      -0.25045529
O        0.00000000       0.00000000       0.00000000       0.87001847       0.33961234      -0.74668593
13
Lattice="529.1772105638412 0.0 0.0 0.0 529.1772105638412 0.0 0.0 0.0 529.1772105638412" Properties=species:S:1:pos:R:3:forces_component_raw:R:3 ipi_comment="Step:         280  Bead:       0 forces_component_raw{ase}  cell{ase}" pbc="T T T"
H        0.00000000       0.00000000       0.00000000      -0.26989053       0.18860860      -0.49244186
H        0.00000000       0.00000000       0.00000000       0.00975733      -0.50302854       0.35546091
H        0.00000000       0.00000000       0.00000000      -0.21690142       0.43008509      -0.20240221
H        0.00000000       0.00000000       0.00000000       0.04429842       1.07552101      -0.49970460
H        0.00000000       0.00000000       0.00000000      -0.27390736      -0.72711057       0.80553371
H        0.00000000       0.00000000       0.00000000      -0.08075498       0.52945845      -0.19774621
H        0.00000000       0.00000000       0.00000000      -0.53080982       0.28296795      -0.36019780
H        0.00000000       0.00000000       0.00000000      -0.25893195      -0.34795751       0.59311660
H        0.00000000       0.00000000       0.00000000      -0.69709735       0.00628051       0.79740908
O        0.00000000       0.00000000       0.00000000      -0.21884324       0.06406778      -0.57836559
O        0.00000000       0.00000000       0.00000000       0.68301488      -0.63044220      -0.11250036
O        0.00000000       0.00000000       0.00000000       0.96624753      -0.54370996       0.74365609
O        0.00000000       0.00000000       0.00000000       0.84381848       0.17525939      -0.85181776
13
Lattice="529.1772105638412 0.0 0.0 0.0 529.1772105638412 0.0 0.0 0.0 529.1772105638412" Properties=species:S:1:pos:R:3:forces_component_raw:R:3 ipi_comment="Step:         300  Bead:       0 forces_component_raw{ase}  cell{ase}" pbc="T T T"
H        0.00000000       0.00000000       0.00000000       0.04510319      -0.17299733       0.66852816
H        0.00000000       0.00000000       0.00000000       0.63571197       0.28852392      -0.61245607
H        0.00000000       0.00000000       0.00000000       0.08132786      -0.30886710       0.42053934
H        0.00000000       0.00000000       0.00000000      -0.45526322       1.34291000      -0.28906993
H        0.00000000       0.00000000       0.00000000      -0.21522868      -0.44655432       0.70993222
H        0.00000000       0.00000000       0.00000000      -0.73237652      -0.02475810      -0.32776113
H        0.00000000       0.00000000       0.00000000       0.10089820       0.11675474       0.54966796
H        0.00000000       0.00000000       0.00000000      -0.36313682       0.24188698      -0.30850219
H        0.00000000       0.00000000       0.00000000      -0.09892249      -0.14082940       0.02100054
O        0.00000000       0.00000000       0.00000000      -0.74271349      -0.16246105       0.20494471
O        0.00000000       0.00000000       0.00000000       0.38726152      -0.72024691      -0.55228027
O        0.00000000       0.00000000       0.00000000       0.80723324      -0.15524649      -0.72706820
O        0.00000000       0.00000000       0.00000000       0.55010524       0.14188507       0.24252486
13
Lattice="529.1772105638412 0.0 0.0 0.0 529.1772105638412 0.0 0.0 0.0 529.1772105638412" Properties=species:S:1:pos:R:3:forces_component_raw:R:3 ipi_comment="Step:         320  Bead:       0 forces_component_raw{ase}  cell{ase}" pbc="T T T"
H        0.00000000       0.00000000       0.00000000       0.37552674      -0.57339602      -0.35014047
H        0.00000000       0.00000000       0.00000000       0.24266033       0.63255999      -0.76072195
H        0.00000000       0.00000000       0.00000000      -0.37531083       0.51802582      -0.09217545
H        0.00000000       0.00000000       0.00000000      -0.09887468       1.31689252      -0.24050643
H        0.00000000       0.00000000       0.00000000      -0.08746791       0.12932609      -0.13860836
H        0.00000000       0.00000000       0.00000000      -0.03543004       0.18490732      -0.21647688
H        0.00000000       0.00000000       0.00000000      -0.37834099       0.07937452      -0.25307181
H        0.00000000       0.00000000       0.00000000      -0.37811221       0.88377112      -0.05240684
H        0.00000000       0.00000000       0.00000000       0.67330733      -0.52964552      -0.55803011
O        0.00000000       0.00000000       0.00000000       0.00402738      -0.17174315       0.43381375
O        0.00000000       0.00000000       0.00000000      -0.30775406      -1.82293489       0.71177522
O        0.00000000       0.00000000       0.00000000       0.59796673      -0.22420380       0.75580211
O        0.00000000       0.00000000       0.00000000      -0.23219781      -0.42293401       0.76074722
13
Lattice="529.1772105638412 0.0 0.0 0.0 529.1772105638412 0.0 0.0 0.0 529.1772105638412" Properties=species:S:1:pos:R:3:forces_component_raw:R:3 ipi_comment="Step:         340  Bead:       0 forces_component_raw{ase}  cell{ase}" pbc="T T T"
H        0.00000000       0.00000000       0.00000000       0.34998489      -0.29891179       0.01283681
H        0.00000000       0.00000000       0.00000000       0.11969022       0.60471553      -0.23719431
H        0.00000000       0.00000000       0.00000000      -0.19558414      -0.20415421       0.39250777
H        0.00000000       0.00000000       0.00000000      -0.59624184       0.90220995      -0.38147001
H        0.00000000       0.00000000       0.00000000       0.59286627      -0.04463753      -0.41887757
H        0.00000000       0.00000000       0.00000000       0.20111715      -0.11294433       0.20332351
H        0.00000000       0.00000000       0.00000000       0.19188753       0.45563459       0.17760997
H        0.00000000       0.00000000       0.00000000      -0.02728136       0.24715465       0.24391914
H        0.00000000       0.00000000       0.00000000       1.07393894      -0.41430585      -1.09402105
O        0.00000000       0.00000000       0.00000000       0.22590545       0.29713433      -0.27158076
O        0.00000000       0.00000000       0.00000000      -0.67969625      -0.51935845       0.67635056
O        0.00000000       0.00000000       0.00000000      -0.11442048      -0.75934659      -0.30281907
O        0.00000000       0.00000000       0.00000000      -1.14216637      -0.15319030       0.99941499
13
Lattice="529.1772105638412 0.0 0.0 0.0 529.1772105638412 0.0 0.0 0.0 529.1772105638412" Properties=species:S:1:pos:R:3:forces_component_raw:R:3 ipi_comment="Step:         360  Bead:       0 forces_component_raw{ase}  cell{ase}" pbc="T T T"
H        0.00000000       0.00000000       0.00000000      -0.35844669      -0.62929213       0.58137509
H        0.00000000       0.00000000       0.00000000       0.60703163       0.27187867      -0.38592272
H        0.00000000       0.00000000       0.00000000      -0.30142860       0.68598183      -0.27975789
H        0.00000000       0.00000000       0.00000000      -0.21679909       0.62930819      -0.19438825
H        0.00000000       0.00000000       0.00000000       0.00341097       0.03608006      -0.16442142
H        0.00000000       0.00000000       0.00000000       0.33576265       0.10521752       0.22746827
H        0.00000000       0.00000000       0.00000000       0.07351963       0.92518331       0.16115751