13
# CELL(abcABC):  529.17722   529.17722   529.17722    90.00000    90.00000    90.00000  Step:           0  Bead:       0 forces{eV/ang}  cell{angstrom}
       H  9.06997e-03 -1.40016e-02  4.81184e-02
       H  4.88772e-01  4.55026e-01 -8.67306e-01
       H  3.22069e-01  7.65024e-02 -2.92186e-01
       H  5.87513e-01 -5.10313e-01  3.44646e-01
       H  3.05099e-01  1.10856e-01  1.39060e-01
       H -3.32059e-02  3.30820e-01 -7.33819e-01
       H  3.82267e-02 -5.76018e-01 -2.47822e-01
       H  5.04674e-02  8.50919e-02 -1.81959e-01
       H -3.47418e-01 -1.04731e-01 -1.91503e-01
       O -1.46004e+00 -1.07925e+00  1.36830e+00
       O -4.21575e-01  2.96996e-01 -3.51448e-01
       O -4.19312e-02  6.82174e-01  8.36575e-01
       O  5.02948e-01  2.46852e-01  1.29340e-01
13
# CELL(abcABC):  529.17722   529.17722   529.17722    90.00000    90.00000    90.00000  Step:          20  Bead:       0 forces{eV/ang}  cell{angstrom}
       H -2.67746e-01 -6.16934e-02  3.03763e-02
       H  4.86834e-01  6.28252e-01 -8.31457e-02
       H  1.54104e-01 -4.79849e-01  2.42633e-01
       H  3.64782e-01 -9.59334e-01  4.03235e-02
       H -3.44379e-01 -2.43618e-01 -2.78308e-01
       H -1.38567e-01  8.38828e-01 -8.54359e-01
       H  8.09951e-02 -1.08545e-01 -6.42164e-01
       H  5.07693e-01 -1.50791e-01  8.67273e-01
       H -1.57720e-01 -6.87823e-02 -1.40337e-01
       O -1.05269e+00 -1.00980e+00  8.90312e-02
       O  7.71030e-01  1.27673e+00  1.61636e-01
       O -8.43623e-03  1.45298e-01  1.47805e+00
       O -3.95898e-01  1.93302e-01 -9.11007e-01
13
# CELL(abcABC):  529.17722   529.17722   529.17722    90.00000    90.00000    90.00000  Step:          40  Bead:       0 forces{eV/ang}  cell{angstrom}
       H  2.70131e-01  3.44919e-01 -3.14887e-01
       H -3.41157e-02  2.28974e-01 -6.70454e-01
       H -1.22552e-01  4.69112e-01  1.52836e-02
       H  5.75492e-01 -2.86042e-01  7.29096e-02
       H -3.75464e-01 -1.08460e+00 -3.20531e-01
       H  1.14409e-02  1.15522e-01 -6.37352e-01
       H  2.63198e-01 -4.65879e-01 -3.35542e-01
       H  3.76635e-01 -4.99837e-01  9.14514e-01
       H -2.93755e-02 -1.19734e-01  3.62968e-02
       O -6.13138e-01 -1.76185e+00  7.66438e-01
       O  4.16959e-01  1.20299e+00  1.89781e-01
       O -4.05957e-01  1.26926e+00  1.08679e+00
       O -3.33252e-01  5.87161e-01 -8.03245e-01
13
# CELL(abcABC):  529.17722   529.17722   529.17722    90.00000    90.00000    90.00000  Step:          60  Bead:       0 forces{eV/ang}  cell{angstrom}
       H -7.92926e-01  7.00110e-01  1.13734e-01
       H  4.01225e-01  4.53046e-02 -6.57361e-01
       H  1.87049e-01 -6.09937e-01  3.76160e-02
       H  1.02785e-01 -3.50394e-01 -6.56409e-02
       H -1.04266e+00 -9.22709e-01 -1.87042e-01
       H -9.91907e-02  2.28117e-01  2.80505e-03
       H -7.20778e-02  8.77216e-02 -1.13822e-01
       H  7.67987e-01 -2.32705e-01  5.82510e-01
       H -1.43032e-01  2.23231e-01 -2.74678e-01
       O  7.53528e-02 -1.53419e-01  1.82994e-01
       O  1.33990e+00  1.25453e+00  2.67269e-01
       O  2.02819e-01 -1.43057e-01 -2.45643e-02
       O -9.27228e-01 -1.26794e-01  1.36180e-01
13
# CELL(abcABC):  529.17722   529.17722   529.17722    90.00000    90.00000    90.00000  Step:          80  Bead:       0 forces{eV/ang}  cell{angstrom}
       H  4.96456e-01  1.34673e+00 -1.81430e-02
       H  1.04373e-01  3.13050e-01  5.45379e-02
       H  1.91121e-01  9.12115e-01 -4.25157e-01
       H  1.87711e-02  6.44455e-01  1.20733e-01
       H -8.02402e-01 -1.18441e+00  3.74446e-02
       H  3.45080e-01 -3.53167e-01 -1.06889e-01
       H -3.00129e-01  1.29129e-01  8.03610e-01
       H -2.03001e-01 -4.00760e-01  2.42792e-01
       H  1.39808e-01 -2.63607e-01  3.35579e-01
       O -6.00428e-01 -1.40976e+00  1.17552e-01
       O  1.07384e+00  1.92350e-01 -6.01687e-02
       O -2.90151e-01 -2.32828e-01 -7.28945e-01
       O -1.73336e-01  3.06703e-01 -3.72945e-01
13
# CELL(abcABC):  529.17722   529.17722   529.17722    90.00000    90.00000    90.00000  Step:         100  Bead:       0 forces{eV/ang}  cell{angstrom}
       H -8.92643e-01  6.60025e-01 -1.07038e-01
       H  3.14027e-01  7.06386e-02 -2.24293e-02
       H  2.50775e-01 -1.17786e+00  3.02518e-01
       H -1.07698e+00  9.42654e-01  6.61827e-01
       H -5.14201e-01 -7.30271e-01  4.35982e-01
       H -1.55062e-01 -2.75477e-01  9.18603e-01
       H -9.67623e-01  8.32041e-01  6.26330e-01
       H -1.28406e-01  5.81955e-01  1.23450e-01
       H -3.96523e-01  3.34460e-01 -1.36850e-01
       O  5.95661e-01  1.29986e+00 -4.45172e-01
       O  1.36219e+00 -9.71624e-02 -1.13773e+00
       O  1.11342e+00 -1.29452e+00 -1.47727e+00
       O  4.95365e-01 -1.14635e+00  2.57783e-01
13
# CELL(abcABC):  529.17722   529.17722   529.17722    90.00000    90.00000    90.00000  Step:         120  Bead:       0 forces{eV/ang}  cell{angstrom}
       H  7.20011e-01  1.55603e-01 -6.30346e-03
       H -4.19719e-01 -1.15189e-01 -2.42514e-01
       H  9.21576e-01  9.79233e-01 -2.09254e-01
       H -1.31892e+00  1.61026e+00  7.19728e-01
       H  1.72043e-01 -7.11322e-01  2.56468e-01
       H  5.30335e-01 -6.98125e-01  7.20914e-01
       H -8.48558e-01  4.66260e-01  1.25784e+00
       H -1.18937e+00  2.35976e-01 -1.35810e-01
       H  2.22965e-01 -2.55872e-01  1.10244e-01
       O -9.42553e-01 -5.85047e-01  6.51866e-01
       O  7.59029e-01 -1.14869e+00 -1.07695e+00
       O  1.58163e-01 -6.56709e-03 -2.03727e+00
       O  1.23500e+00  7.34795e-02 -8.95400e-03
13
# CELL(abcABC):  529.17722   529.17722   529.17722    90.00000    90.00000    90.00000  Step:         140  Bead:       0 forces{eV/ang}  cell{angstrom}
       H -6.27319e-01 -5.36394e-01 -6.69337e-02
       H  2.73160e-01 -4.57177e-01  5.22890e-01
       H -5.68569e-02 -6.71897e-01  3.94695e-01
       H -1.81256e+00  1.14263e+00  7.65776e-01
       H  2.67705e-01  4.14872e-01 -4.70200e-02
       H  1.41204e-01 -5.54506e-01  1.06556e+00
       H -7.47109e-01  5.92197e-01  8.11049e-01
       H  3.31959e-01  6.97469e-01 -4.01978e-01
       H -1.10993e-01  4.97143e-01 -2.52662e-01
       O  4.81329e-01  1.35533e+00 -4.49388e-01
       O  1.42817e+00 -1.38348e+00 -8.67185e-01
       O  7.01625e-01 -7.02753e-02 -1.85143e+00
       O -2.70319e-01 -1.02591e+00  3.76626e-01
13
# CELL(abcABC):  529.17722   529.17722   529.17722    90.00000    90.00000    90.00000  Step:         160  Bead:       0 forces{eV/ang}  cell{angstrom}
       H  5.40809e-01 -9.41568e-01 -2.22282e-01
       H -6.32211e-01  5.53593e-01  2.11407e-01
       H -3.27043e-01  6.68842e-01 -4.17523e-01
       H -1.39400e+00  1.83117e+00  1.35193e-01
       H  6.68990e-01  5.84038e-01 -4.52912e-01
       H  4.88732e-01 -8.44828e-01  6.45598e-01
       H -2.64518e-01  2.04072e-01  7.09672e-01
       H -3.56103e-01  1.38854e-01 -3.01561e-01
       H -6.02439e-01 -3.51450e-01  2.01670e-01
       O  1.57126e-01 -5.23414e-01  8.03889e-01
       O  8.41073e-01 -2.46324e+00  3.59388e-01
       O -3.44968e-01  8.05033e-01 -1.18051e+00
       O  1.22455e+00  3.38899e-01 -4.92033e-01
13
# CELL(abcABC):  529.17722   529.17722   529.17722    90.00000    90.00000    90.00000  Step:         180  Bead:       0 forces{eV/ang}  cell{angstrom}
       H  7.43454e-01 -6.10963e-01  1.50060e-01
       H  5.89319e-01 -2.03195e-01 -2.30232e-02
       H -9.75344e-03 -4.10791e-01  6.03110e-01
       H -1.10047e+00  9.60582e-01  2.06750e-03
       H  5.53369e-01  1.05809e+00 -3.59461e-01
       H -1.15492e-01  1.89406e-01 -8.29932e-02
       H -5.26223e-02  9.26997e-02 -2.23234e-02
       H  4.84758e-01  7.29216e-02 -1.27389e-01
       H -4.83497e-01  1.48984e-01 -3.13417e-01
       O -1.53241e+00  7.92431e-01 -4.87915e-01
       O  1.00345e+00 -1.89746e+00  2.77555e-01
       O -4.83637e-02 -3.66536e-02  4.66178e-03
       O -3.17451e-02 -1.56056e-01  3.79068e-01
13
# CELL(abcABC):  529.17722   529.17722   529.17722    90.00000    90.00000    90.00000  Step:         200  Bead:       0 forces{eV/ang}  cell{angstrom}
       H -3.99060e-01 -3.84393e-01  3.91091e-01
       H -5.68286e-01  1.72732e-01 -5.35313e-01
       H -1.46554e-01  4.91008e-02 -3.78678e-01
       H  1.47212e-02  7.94651e-01 -1.52142e-01
       H  8.54430e-01  8.19510e-01 -2.87360e-01
       H -1.95692e-01  2.25113e-01 -6.17196e-01
       H  6.87224e-02 -1.28623e-01  1.84768e-01
       H -1.57716e-01 -4.57692e-01  4.48611e-01
       H -5.66289e-01 -3.75347e-01  2.43307e-01
       O  7.63828e-01  2.74644e-01  1.84557e-01
       O -5.72362e-01 -1.82619e+00  5.39687e-01
       O  1.39804e-01  1.01799e-01  3.40314e-01
       O  7.64453e-01  7.34697e-01 -3.61645e-01
13
# CELL(abcABC):  529.17722   529.17722   529.17722    90.00000    90.00000    90.00000  Step:         220  Bead:       0 forces{eV/ang}  cell{angstrom}
       H  5.65556e-01  1.87815e-02 -2.78447e-01
       H  7.50526e-01 -1.83228e-01 -1.35300e-01
       H -8.83538e-02  1.98568e-01 -2.31170e-02
       H  1.56910e-01  1.54669e-01 -6.79303e-02
       H -7.09985e-02  7.24875e-02 -5.61709e-02
       H -4.02938e-01  3.60452e-01 -5.84710e-01
       H  8.26925e-02  1.30614e-02 -2.64195e-01
       H  9.58734e-01 -4.91950e-01  3.51801e-01
       H -1.10713e+00  2.43887e-01 -3.08126e-01
       O -8.51165e-01  4.33180e-01 -3.93631e-01
       O  1.55755e-01 -4.25924e-01  2.13813e-01
       O  2.30874e-01 -3.68541e-01  9.43424e-01
       O -3.80460e-01 -2.54449e-02  6.02590e-01
13
# CELL(abcABC):  529.17722   529.17722   529.17722    90.00000    90.00000    90.00000  Step:         240  Bead:       0 forces{eV/ang}  cell{angstrom}
       H -5.52669e-01 -1.87445e-01  1.40525e-03
       H -6.57648e-01  6.90872e-01  3.10681e-01
       H  6.44141e-01 -4.97616e-01 -3.00361e-01
       H  7.61377e-01 -9.33075e-01  4.70245e-01
       H -3.87395e-01 -2.76595e-01  1.48378e-01
       H -4.02819e-01  3.48190e-01 -4.61068e-01
       H -3.63791e-03  1.80581e-02 -3.86466e-01
       H -5.74692e-02 -8.36603e-01  6.99330e-01
       H -2.10779e-01 -3.25746e-01  1.69003e-01
       O  7.08891e-01  5.44002e-01 -6.92934e-01
       O -4.89891e-01  1.27825e+00 -5.38195e-01
       O  4.45739e-01 -3.99198e-01  9.75668e-01
       O  2.02160e-01  5.76903e-01 -3.95688e-01
13
# CELL(abcABC):  529.17722   529.17722   529.17722    90.00000    90.00000    90.00000  Step:         260  Bead:       0 forces{eV/ang}  cell{angstrom}
       H  4.62430e-01  6.72436e-01 -4.25007e-01
       H  2.57300e-01 -2.97571e-01 -4.65050e-01
       H  3.19376e-01  2.97389e-01  3.79831e-03
       H  1.39789e+00 -7.01888e-01  5.39443e-01
       H  7.89902e-02 -7.10310e-01  5.27243e-01
       H  2.32016e-01 -2.45124e-01  3.25110e-01
       H  8.46898e-02 -2.51944e-01 -2.47402e-01
       H  3.55647e-01 -4.95827e-01  2.43307e-01
       H  3.23612e-01  1.58541e-01 -1.88228e-01
       O -7.02927e-01 -8.85950e-01  7.67108e-01
       O -1.65131e+00  1.42654e+00 -1.11756e+00
       O -4.79293e-01  7.16313e-01 -7.48244e-02
       O -6.78416e-01  3.17392e-01  1.12061e-01
13
# CELL(abcABC):  529.17722   529.17722   529.17722    90.00000    90.00000    90.00000  Step:         280  Bead:       0 forces{eV/ang}  cell{angstrom}
       H -1.17648e+00  1.40048e+00  2.73667e-01
       H  1.22082e-01  6.95797e-02 -2.83248e-02
       H  6.11042e-01 -4.41177e-01  3.71006e-02
       H  2.40093e-01 -3.25872e-01  2.83964e-01
       H -3.35534e-01 -7.25902e-01  6.15931e-01
       H  1.13215e-01  9.70297e-02  3.71523e-01
       H  5.89896e-03 -1.21223e-01 -3.02130e-01
       H -6.95841e-02 -2.68438e-01  9.84661e-02
       H -4.17966e-02 -1.78459e-01  9.52180e-02
       O  7.04405e-01 -1.66134e+00  1.89120e-01
       O -2.04095e-01  1.08649e+00 -9.47336e-01
       O -1.73129e-01  4.37878e-01 -2.08396e-01
       O  2.03883e-01  6.30953e-01 -4.78804e-01
13
# CELL(abcABC):  529.17722   529.17722   529.17722    90.00000    90.00000    90.00000  Step:         300  Bead:       0 forces{eV/ang}  cell{angstrom}
       H -1.30115e-01  5.87793e-01 -3.27934e-01
       H  2.27860e-01 -8.66949e-02  9.42691e-03
       H  1.33179e+00  4.29112e-01 -2.78372e-01
       H  2.04498e-03  2.62791e-01 -3.31951e-01
       H  2.85360e-02 -6.77017e-01  6.38837e-01
       H -5.81685e-02  7.12326e-02  5.60062e-02
       H -7.29701e-02 -1.32397e-02 -2.60595e-01
       H -5.26242e-02  7.99878e-01 -1.52752e-01
       H  5.76754e-01 -3.19740e-02 -1.29521e-01
       O -1.62755e+00 -1.54787e+00  1.17981e+00
       O -1.47441e-01  2.68913e-01 -2.23502e-01
       O  1.06242e-01  2.40161e-01  3.17759e-01
       O -1.84357e-01 -3.03083e-01 -4.97212e-01
13
# CELL(abcABC):  529.17722   529.17722   529.17722    90.00000    90.00000    90.00000  Step:         320  Bead:       0 forces{eV/ang}  cell{angstrom}
       H  2.14922e-01 -2.31244e-01  3.34422e-02
       H  1.29782e-01 -3.92031e-02  1.07731e-01
       H  1.03992e+00 -1.82261e-01 -5.18986e-02
       H -8.38872e-01  4.82506e-01 -3.02333e-01
       H  1.18768e-01  4.51147e-01 -5.23616e-01
       H -1.32345e-01  5.88177e-02 -5.08996e-02
       H -7.00121e-02  7.59534e-02  1.28578e-01
       H  1.73734e-02  1.05916e+00  2.58972e-01
       H  7.83203e-01 -3.44667e-01 -2.10872e-01
       O -1.71632e+00  2.04303e-01  3.72824e-01
       O  7.71218e-01 -8.99338e-01  8.79325e-01
       O  1.95351e-01 -1.23844e-01 -1.26472e-01
       O -5.12993e-01 -5.11327e-01 -5.14783e-01
13
# CELL(abcABC):  529.17722   529.17722   529.17722    90.00000    90.00000    90.00000  Step:         340  Bead:       0 forces{eV/ang}  cell{angstrom}
       H  1.25785e-01 -1.75033e-01  3.09714e-01
       H -7.52606e-01 -6.59187e-02  2.18592e-01
       H  6.04799e-01 -2.58572e-01  1.52341e-02
       H -4.21694e-01  1.04599e+00 -9.35486e-01
       H  1.00482e+00  3.69601e-01 -9.20084e-01
       H  1.35214e-01 -1.16518e-01 -3.92990e-02
       H -3.95892e-03  3.18041e-01  7.09639e-01
       H  1.87263e-01  2.74262e-01  1.93668e-01
       H  1.00864e+00 -5.15357e-01 -2.92841e-01
       O -1.19046e-01  8.59543e-01 -5.24547e-01
       O -8.40498e-01 -1.37186e+00  1.89405e+00
       O  7.41159e-03 -5.98873e-01 -6.90857e-01
       O -9.36124e-01  2.34688e-01  6.22140e-02
13
# CELL(abcABC):  529.17722   529.17722   529.17722    90.00000    90.00000    90.00000  Step:         360  Bead:       0 forces{eV/ang}  cell{angstrom}
       H  3.36645e-01 -1.60061e-01 -5.80210e-01
       H  3.62010e-01 -2.34511e-01 -6.03603e-01
       H  2.11684e-01  5.24115e-01 -3.37770e-02
       H -9.57900e-01  1.02544e+00 -4.07109e-01
       H  1.10314e-01  4.34697e-01 -8.99709e-01
       H -1.03243e-01 -8.17591e-02 -7.43302e-02
       H -1.54473e-01  6.43793e-01  9.58538e-01
       H -6.76410e-02  1.71552e-03  2.55619e-02
       H  2.64264e-01 -5.35146e-01 -9.88569e-02
       O -1.30045e+00  5.60325e-01  5.89501e-01
       O  9.02120e-01 -1.66468e+00  1.42799e+00
       O  6.76794e-01 -1.10940e+00 -6.30290e-01
       O -2.80127e-01  5.95479e-01  3.26293e-01
13
# CELL(abcABC):  529.17722   529.17722   529.17722    90.00000    90.00000    90.00000  Step:         380  Bead:       0 forces{eV/ang}  cell{angstrom}
       H -7.60698e-01 -7.86207e-01  5.28191e-01
       H  2.07586e-01  7.20389e-01  2.48012e-01
       H -3.31361e-01 -3.60423e-01 -1.11181e-01
       H -7.46690e-01  1.30008e+00 -9.37860e-01
       H  4.01830e-01  4.83863e-02 -9.86503e-01
       H -3.98318e-01 -7.73294e-02 -4.72631e-01
       H  1.41227e-01  2.56788e-01  5.68781e-01
       H  2.94439e-01  7.30318e-02 -8.19031e-03
       H  2.35369e-01  7.87268e-02 -6.31452e-02
       O  5.96683e-01  1.44613e+00 -1.10000e+00
       O  4.44998e-01 -1.43985e+00  2.14142e+00
       O  7.30778e-01 -5.94847e-01 -1.17416e-01
       O -8.15843e-01 -6.64874e-01  3.10517e-01
13
# CELL(abcABC):  529.17722   529.17722   529.17722    90.00000    90.00000    90.00000  Step:         400  Bead:       0 forces{eV/ang}  cell{angstrom}
       H  1.02746e+00  6.63514e-01  2.87397e-02
       H  1.06952e-01  1.22635e-01 -3.52506e-01
       H -2.05154e-01  5.82553e-01 -1.95178e-01
       H -8.04119e-01  7.04950e-01 -1.48581e-01
       H -6.12089e-02  1.07151e-01  1.24753e-01
       H -6.98235e-01  4.28961e-01 -2.57344e-01
       H -1.64220e-01  8.26121e-02  7.49838e-02
       H -3.21209e-01 -2.42856e-01 -3.88360e-04
       H -2.85886e-01 -6.10578e-02  3.45024e-01
       O -7.72141e-01 -1.12375e+00  4.27213e-01
       O  1.03075e+00 -8.29232e-01 -2.39905e-02
       O  6.07863e-01 -6.27714e-01 -1.71018e-02
       O  5.39151e-01  1.92238e-01 -5.62307e-03
13
# CELL(abcABC):  529.17722   529.17722   529.17722    90.00000    90.00000    90.00000  Step:         420  Bead:       0 forces{eV/ang}  cell{angstrom}
       H -2.44670e-01 -1.14245e+00  1.16867e-01
       H -1.33399e-01  3.82885e-01 -2.04368e-01
       H -5.00683e-01 -1.14955e+00  6.35348e-01
       H -6.64462e-02 -1.17575e-01 -4.85586e-02
       H  4.98000e-01 -2.15457e-01  7.58580e-01
       H -5.97049e-01 -1.72203e-01 -7.41275e-01
       H  3.14970e-01 -4.94877e-01 -1.24465e-01
       H -5.86440e-01 -8.46133e-01 -3.53874e-01
       H  2.98220e-02  2.98247e-01  4.62620e-01
       O  7.86511e-01  1.28825e+00 -4.38858e-01
       O -3.14030e-01  6.53146e-01 -1.06262e+00
       O  2.03807e-01  1.09914e+00  8.87598e-01
       O  6.09606e-01  4.16589e-01  1.13001e-01
13
# CELL(abcABC):  529.17722   529.17722   529.17722    90.00000    90.00000    90.00000  Step:         440  Bead:       0 forces{eV/ang}  cell{angstrom}
       H  7.01790e-01 -5.48142e-01 -4.49851e-01
       H  3.96619e-01  4.30437e-01 -1.13784e-01
       H -9.51699e-01  1.03825e+00 -1.69668e-01
       H  3.29439e-01 -3.91771e-01  4.85878e-01
       H -1.51852e-01  2.43932e-01  1.12551e+00
       H -1.78233e-01  3.96230e-01 -1.34208e-01
       H -3.28232e-01 -3.15778e-01 -7.15820e-01
       H -1.13353e+00 -1.31801e+00 -2.07461e-01
       H -1.29565e-01  3.28665e-01  1.66669e+00
       O  3.07633e-02 -1.10942e+00  6.92541e-01
       O -1.38507e-01  2.17279e-02 -1.58661e+00
       O  3.42146e-01  2.74798e-01  1.01802e+00
       O  1.21086e+00  9.49079e-01 -1.61124e+00
13
# CELL(abcABC):  529.17722   529.17722   529.17722    90.00000    90.00000    90.00000  Step:         460  Bead:       0 forces{eV/ang}  cell{angstrom}
       H -1.08787e+00  1.82387e-01  8.17720e-01
       H  5.83211e-01  4.15446e-01 -1.60297e-01
       H -1.18895e+00 -4.58445e-01  2.62609e-01
       H  4.39245e-01 -3.96308e-01 -1.15404e-01
       H  5.38839e-02 -3.55366e-01  1.37184e+00
       H -1.07520e-01 -3.83683e-01 -1.50557e-01
       H  1.13468e-01 -1.15716e+00 -2.45086e-01
       H -6.40834e-01 -6.53311e-01 -3.49278e-01
       H  2.37209e-01  1.44794e-01  1.29514e+00
       O  2.25810e+00 -9.60145e-01 -5.46747e-01
       O -7.32048e-01  8.29197e-01 -1.14544e+00
       O -2.50918e-01  2.12847e+00  1.34455e-01
       O  3.23019e-01  6.64121e-01 -1.16896e+00
13
# CELL(abcABC):  529.17722   529.17722   529.17722    90.00000    90.00000    90.00000  Step:         480  Bead:       0 forces{eV/ang}  cell{angstrom}
       H  5.42331e-01  4.88339e-01 -7.52878e-01
       H -1.65933e-01 -4.63490e-01 -6.88500e-01
       H -7.82473e-01  6.00891e-01 -7.43270e-02
       H -3.39071e-01 -6.95258e-02  5.20121e-01
       H -1.01032e+00  2.50273e-01  5.14976e-01
       H  1.73831e-01  2.09795e-01  3.40280e-01
       H -5.95274e-01 -5.59956e-01 -1.09313e+00
       H -1.30691e-01 -1.95624e-01  7.52056e-02
       H  1.12975e-01 -3.79020e-01  9.78465e-01
       O  2.32194e-01 -1.05234e+00  1.27804e+00
       O  1.46096e+00 -2.07569e-01 -9.69985e-01
       O  2.62826e-01  4.87025e-01  9.21745e-01
       O  2.38642e-01  8.91203e-01 -1.05001e+00
13
# CELL(abcABC):  529.17722   529.17722   529.17722    90.00000    90.00000    90.00000  Step:         500  Bead:       0 forces{eV/ang}  cell{angstrom}
       H -1.56327e+00  1.48397e+00  3.08051e-01
       H -3.12522e-01  7.57531e-01  5.20801e-02
       H  9.97457e-02 -9.22726e-01  5.81458e-01
       H -3.70872e-01  4.82844e-01 -8.88960e-01
       H  5.55235e-01 -3.65198e-02 -2.41723e-01
       H  1.62473e-01 -5.78660e-01  7.86693e-01
       H -8.26392e-01 -1.18353e+00 -8.35081e-01
       H -4.07121e-02  9.95837e-02 -1.59884e-01
       H  9.70759e-02  3.66099e-01 -3.72985e-01
       O  1.57218e+00 -1.66160e+00 -4.76970e-01
       O -1.82750e-01 -2.44082e-01  9.46818e-01
       O  6.75340e-01  1.80099e+00  7.72827e-02
       O  1.34467e-01 -3.63896e-01  2.23220e-01
13
# CELL(abcABC):  529.17722   529.17722   529.17722    90.00000    90.00000    90.00000  Step:         520  Bead:       0 forces{eV/ang}  cell{angstrom}
       H -6.23028e-01  1.92279e+00 -2.05450e-01
       H  2.65708e-01  3.84397e-01  1.69121e-01
       H -7.15395e-01  7.04253e-01 -3.47536e-01
       H -7.87708e-01  2.61470e-01 -8.62420e-01
       H  2.03727e-02  2.56663e-01 -5.54389e-01
       H  6.94499e-01 -5.99290e-01  1.70197e+00
       H -9.43052e-01 -8.30886e-01 -1.06674e+00
       H  3.19978e-02 -1.14168e-01  2.19098e-01
       H -4.63977e-01  5.10026e-01 -9.25708e-01
       O  8.77372e-01 -2.68578e+00  4.29733e-01
       O  9.98681e-01 -6.73912e-01  1.63258e+00
       O  3.28625e-01  1.22864e+00 -6.17141e-01
       O  3.15905e-01 -3.64204e-01  4.26886e-01
13
# CELL(abcABC):  529.17722   529.17722   529.17722    90.00000    90.00000    90.00000  Step:         540  Bead:       0 forces{eV/ang}  cell{angstrom}
       H -1.20900e+00  1.43644e+00  1.13257e-01
       H  2.95300e-01 -2.82941e-01 -5.09183e-01
       H -4.15186e-01 -4.45054e-01  4.89477e-01
       H -1.02012e+00  1.82565e-01 -1.17098e+00
       H  5.35898e-02  9.43117e-02 -1.57040e-01
       H  5.08801e-01 -1.13008e+00  1.57773e+00
       H -4.69892e-01 -9.11921e-01 -3.05476e-01
       H  1.13436e-01  1.71223e-01 -1.58386e-02
       H -9.43453e-01  1.15643e+00 -1.07318e+00
       O  9.39131e-01 -7.96951e-01 -2.37787e-02
       O  1.04419e+00 -2.46796e-01  1.27979e+00
       O  2.45327e-01  1.86704e+00 -1.33712e+00
       O  8.57872e-01 -1.09427e+00  1.13233e+00
13
# CELL(abcABC):  529.17722   529.17722   529.17722    90.00000    90.00000    90.00000  Step:         560  Bead:       0 forces{eV/ang}  cell{angstrom}
       H  2.22062e-01  1.38660e-01 -1.87438e-01
       H -3.39833e-01 -9.15798e-02 -2.37682e-01
       H -4.46785e-01  6.41746e-01  1.43441e-01
       H -1.04677e+00  4.70662e-02 -9.28147e-01
       H -1.98745e-01 -1.49735e-01  3.05890e-01
       H  6.25970e-01 -9.13866e-03  1.23610e+00
       H -3.21423e-01 -1.82798e-01 -6.14400e-01
       H  4.87287e-01  4.42601e-03  1.93209e-01
       H -1.00485e+00  7.46990e-01 -6.01331e-01
       O  3.38917e-01 -4.74494e-01  2.67811e-01
       O  1.27080e+00  1.73380e-03  5.47934e-01
       O -1.96718e-01  1.43532e-02 -6.15006e-01
       O  6.10086e-01 -6.87230e-01  4.89617e-01
13
# CELL(abcABC):  529.17722   529.17722   529.17722    90.00000    90.00000    90.00000  Step:         580  Bead:       0 forces{eV/ang}  cell{angstrom}
       H  3.63560e-01 -7.82645e-01 -3.48596e-02
       H  7.70161e-02 -2.84070e-01  7.20020e-01
       H -1.67935e-01 -6.42245e-01  1.72716e-01
       H -7.74997e-01  1.48045e-01 -8.40554e-01
       H  1.52445e-02 -1.83491e-01  3.46004e-01
       H  5.75266e-01 -7.76490e-01  4.93312e-01
       H  3.70160e-01 -1.51318e-01  3.96507e-01
       H -3.28667e-01 -1.16825e-01  1.00801e-01
       H -4.90468e-01  1.05451e+00 -3.96478e-01
       O  1.02873e-01  1.81512e+00 -8.49384e-01
       O  6.41753e-01  2.18592e-01  4.83230e-01
       O -9.76344e-01  8.62703e-01 -8.63234e-01
       O  5.92540e-01 -1.16190e+00  2.71917e-01
13
# CELL(abcABC):  529.17722   529.17722   529.17722    90.00000    90.00000    90.00000  Step:         600  Bead:       0 forces{eV/ang}  cell{angstrom}
       H  8.35861e-01 -8.45053e-01 -4.78483e-01
       H -1.37969e-01 -3.63101e-01  2.32357e-01
       H  3.58648e-02  2.26337e-01 -3.28385e-01
       H -1.44820e-01  4.85668e-02 -2.53231e-01
       H -3.05608e-01 -2.37189e-01  4.19353e-01
       H  2.45896e-01  2.86897e-01  4.53296e-01
       H -2.01817e-01  5.40714e-01  1.00840e-01
       H -4.04583e-02 -3.57959e-01  1.50908e-01
       H -2.03939e-01 -7.88135e-02 -5.38249e-02
       O -2.69976e-01  1.22781e+00  6.40187e-02
       O  1.83713e-01  2.39345e-01  2.72744e-02
       O -4.09330e-02 -8.97694e-01 -4.62702e-01
       O  4.41864e-02  2.10142e-01  1.28579e-01
13
# CELL(abcABC):  529.17722   529.17722   529.17722    90.00000    90.00000    90.00000  Step:         620  Bead:       0 forces{eV/ang}  cell{angstrom}
       H -1.78909e-01 -1.25021e+00  2.28163e-01
       H -2.80508e-01 -2.70276e-01  1.75138e-01
       H -1.10978e-01  1.16014e-02  1.51345e-01
       H -9.27995e-02 -8.47435e-02  8.56667e-02
       H -4.57398e-01 -2.49897e-01  2.14176e-01
       H  2.24764e-01 -4.99637e-01 -3.08785e-01
       H  5.95827e-01 -5.08315e-03  3.59837e-01
       H  6.93813e-01  3.93419e-01 -2.64802e-02
       H  4.57721e-01 -4.29057e-01  2.89520e-02
       O  1.11971e+00  1.46517e+00 -1.04372e+00
       O  1.96043e-01  3.31491e-01 -2.25763e-01
       O -8.83553e-01  8.80915e-01 -6.40663e-02
       O -1.28373e+00 -2.93697e-01  4.25539e-01
13
# CELL(abcABC):  529.17722   529.17722   529.17722    90.00000    90.00000    90.00000  Step:         640  Bead:       0 forces{eV/ang}  cell{angstrom}
       H  6.85464e-01 -4.78991e-01  1.52273e-01
       H  3.82951e-01 -4.57567e-01  2.22276e-01
       H  4.85465e-01  1.53467e-01  2.24268e-02
       H  8.86289e-01  3.09218e-02  7.24457e-01
       H  2.86764e-01  6.83991e-02  4.61016e-02
       H -6.51532e-01  4.90782e-01  1.24616e-01
       H -4.07401e-01 -2.99913e-02 -1.26848e-01
       H  9.78888e-01  1.60273e-02 -2.94634e-01
       H  2.47572e-01 -1.02972e+00  5.53043e-02
       O -1.36424e+00  1.15904e+00 -3.02252e-01
       O -1.18727e+00 -1.61381e-01 -7.94339e-01
       O  9.96684e-01 -5.75581e-01 -1.87174e-01
       O -1.33964e+00  8.14594e-01  3.57792e-01
13
# CELL(abcABC):  529.17722   529.17722   529.17722    90.00000    90.00000    90.00000  Step:         660  Bead:       0 forces{eV/ang}  cell{angstrom}
       H -2.37495e-01 -8.21763e-01  1.68283e-01
       H -3.28008e-01 -3.33862e-01  5.64730e-01
       H  1.42273e-01 -2.74488e-01 -2.75118e-01
       H  4.41895e-01 -1.86971e-01  6.62453e-01
       H -1.07478e-01  9.36894e-02 -3.99492e-01
       H -1.22134e+00 -3.90637e-01 -3.53938e-01
       H  2.98845e-01 -4.08890e-01 -4.58008e-01
       H  5.01263e-01  7.88877e-01 -4.42466e-01
       H  8.00142e-01 -8.02579e-01 -1.71392e-01
       O -2.15296e-01  1.39484e+00 -4.87665e-01
       O  4.66022e-02  1.05336e-01 -1.77320e-01
       O  1.06235e+00  9.55348e-01  7.88721e-01
       O -1.18375e+00 -1.18901e-01  5.81212e-01
13
# CELL(abcABC):  529.17722   529.17722   529.17722    90.00000    90.00000    90.00000  Step:         680  Bead:       0 forces{eV/ang}  cell{angstrom}
       H  5.47034e-01 -4.83046e-01 -5.28203e-01
       H  2.21832e-01  9.98507e-03 -1.66158e-01
       H -3.56551e-01 -5.29711e-02  5.87520e-02
       H  8.79527e-01  2.03208e-01  3.88885e-01
       H  6.67029e-01  3.72949e-01 -4.65258e-01
       H -2.04619e+00 -1.00640e-01  3.15310e-01
       H -3.41701e-01 -8.78972e-02 -1.82682e-01
       H  4.64482e-01 -4.19131e-01 -2.02874e-01
       H -1.06533e-01 -8.65708e-01  1.31577e-01
       O -1.01530e+00  3.14019e-03  9.32182e-01
       O -1.24436e+00 -4.64028e-01  1.13342e-03
       O  2.51087e+00  2.23377e-01  6.16822e-03
       O -1.80142e-01  1.66076e+00 -2.88832e-01
13
# CELL(abcABC):  529.17722   529.17722   529.17722    90.00000    90.00000    90.00000  Step:         700  Bead:       0 forces{eV/ang}  cell{angstrom}
       H -2.33150e-01 -2.03145e-01  5.07812e-01
       H -1.71061e-01  1.43784e-01  1.76247e-01
       H  7.13110e-01 -1.46094e-01  2.90830e-01
       H -3.38387e-01 -2.07611e-01  4.96047e-01
       H  4.17330e-02  2.43101e-01 -9.71359e-01
       H -9.46401e-01 -1.85011e-01  1.06016e-01
       H  1.34551e-01  5.99617e-02 -2.78264e-02
       H -3.91129e-01  4.39971e-01  1.70393e-01
       H  5.11351e-01  2.08791e-01 -3.30528e-01
       O -7.95065e-01 -3.43049e-01 -1.40587e-03
       O  5.96795e-01  8.34104e-03  6.22685e-02
       O  8.76891e-01  1.00249e-01 -2.11768e-01
       O  7.62606e-04 -1.19289e-01 -2.66726e-01
13
# CELL(abcABC):  529.17722   529.17722   529.17722    90.00000    90.00000    90.00000  Step:         720  Bead:       0 forces{eV/ang}  cell{angstrom}
       H -1.90115e-01  1.02997e+00  3.48383e-02
       H -1.49376e-01  2.25629e-02 -1.75529e-01
       H -1.55993e-01  4.06070e-01 -3.21660e-01
       H  9.93654e-02  9.58750e-02 -4.19798e-01
       H  4.43559e-01  5.94976e-02 -1.71696e-01
       H  1.65105e-01  1.29113e-01 -1.42924e-01
       H  1.86389e-02 -2.17393e-01 -1.73406e-01
       H -6.91592e-01 -1.35179e-01  4.45550e-01
       H -1.34697e-01  1.21042e+00 -1.74851e-01
       O  8.12029e-01 -1.75634e+00  3.89407e-01
       O -7.13538e-01 -1.31113e-01  7.31089e-01
       O -2.85621e-01  1.68452e-02  3.30760e-01
       O  7.82235e-01 -7.30325e-01 -3.51780e-01
13
# CELL(abcABC):  529.17722   529.17722   529.17722    90.00000    90.00000    90.00000  Step:         740  Bead:       0 forces{eV/ang}  cell{angstrom}
       H -1.31617e+00  1.79038e+00  1.75654e-01
       H  5.38951e-01  5.36885e-01 -8.24350e-02
       H  1.84304e-01 -6.28839e-01 -6.31224e-02
       H -1.21504e-01  3.91075e-03  6.24012e-01
       H -6.17183e-01  2.15917e-01 -2.03357e-01
       H  1.21837e-01  4.21631e-01  5.75352e-02
       H -3.03197e-01  6.36179e-02  1.14729e-01
       H -1.10152e+00  1.89453e-01  7.77995e-01
       H -2.74478e-02  1.27546e+00 -1.45871e-02
       O  1.32413e+00 -1.86382e+00 -3.08857e-01
       O  1.16356e-01 -4.01625e-02 -1.56140e-01
       O  1.92291e-01 -5.02869e-01 -1.07666e-01
       O  1.00916e+00 -1.46157e+00 -8.13761e-01
13
# CELL(abcABC):  529.17722   529.17722   529.17722    90.00000    90.00000    90.00000  Step:         760  Bead:       0 forces{eV/ang}  cell{angstrom}
       H -3.46548e-01  8.70594e-01 -1.44849e-01
       H -1.31968e-01  6.66996e-01 -4.06114e-02
       H  2.90180e-01  7.28208e-01 -1.74718e-01
       H  6.57754e-01 -3.60539e-01 -5.20909e-02
       H  3.88977e-02 -7.04940e-02  7.69814e-01