13
Lattice="529.1772105638412 0.0 0.0 0.0 529.1772105638412 0.0 0.0 0.0 529.1772105638412" Properties=species:S:1:pos:R:3 ipi_comment="Step:           0  Bead:       0 positions{ase}  cell{ase}" pbc="T T T"
H       -0.17162402       0.99555316       0.00473486
H       -0.53842585      -0.53583351       0.71223619
H        0.99859320      -0.10609560       0.09269124
H        2.95167916      -0.72799353       0.41628544
H        2.82399961       0.82332379       0.38936683
H       -0.06136288       2.93153118      -0.83804214
H       -0.21663176       3.15665531       0.67757749
H       -0.96483947      -1.54127569       2.74271215
H       -2.14579432      -1.86554619       1.81526214
O        0.00000000       0.00000000       0.00000000
O        2.48154349       0.00000000       0.00000000
O       -0.00570156       2.46453243       0.00000000
O       -1.28149480      -1.43613888       1.82246890
13
Lattice="529.1772105638412 0.0 0.0 0.0 529.1772105638412 0.0 0.0 0.0 529.1772105638412" Properties=species:S:1:pos:R:3 ipi_comment="Step:          20  Bead:       0 positions{ase}  cell{ase}" pbc="T T T"
H       -0.17949183       1.34233862       0.06955352
H       -0.41749677      -0.55751339       0.70817221
H        1.42067021      -0.05527398       0.10071450
H        3.05910694      -0.75163460       0.20270129
H        2.97750058       0.72832123       0.42976296
H       -0.04467473       2.85687425      -0.86750109
H       -0.27400724       2.96123011       0.76711824
H       -0.97242007      -1.57320255       2.72874212
H       -2.11500467      -1.82704889       1.76367558
O        0.00351724       0.01594979      -0.00713053
O        2.43531650      -0.02290940       0.02100012
O       -0.03671523       2.39344872      -0.02146143
O       -1.25682553      -1.35770316       1.83698392
13
Lattice="529.1772105638412 0.0 0.0 0.0 529.1772105638412 0.0 0.0 0.0 529.1772105638412" Properties=species:S:1:pos:R:3 ipi_comment="Step:          40  Bead:       0 positions{ase}  cell{ase}" pbc="T T T"
H       -0.15832041       1.04244385       0.01567868
H       -0.46145819      -0.48060946       0.87864871
H        1.02709502      -0.08003721       0.10611386
H        2.88171987      -0.90108790       0.02843033
H        3.07080646       0.70363973       0.34321098
H       -0.17430258       2.93231790      -0.83106607
H       -0.44951549       2.98137432       0.67363191
H       -0.85708202      -1.60017914       2.66174877
H       -2.06349074      -1.69524507       1.69234734
O        0.00531910      -0.00721025      -0.00441006
O        2.44505430      -0.03483869       0.05219739
O       -0.07466933       2.37387290      -0.02250449
O       -1.19016856      -1.28908430       1.82516483
13
Lattice="529.1772105638412 0.0 0.0 0.0 529.1772105638412 0.0 0.0 0.0 529.1772105638412" Properties=species:S:1:pos:R:3 ipi_comment="Step:          60  Bead:       0 positions{ase}  cell{ase}" pbc="T T T"
H       -0.14692216       1.25229867      -0.00658814
H       -0.54230789      -0.50391092       0.81463615
H        1.21797442      -0.08270697       0.16522607
H        2.85333085      -0.92671597      -0.03602081
H        3.22919368       0.55454220       0.24032104
H       -0.28149762       2.84845635      -0.90170068
H       -0.58348969       2.86338388       0.72696404
H       -0.73188235      -1.61949839       2.59109414
H       -1.99383639      -1.59315948       1.70509345
O       -0.02466795      -0.09323123       0.02070111
O        2.42491546      -0.04262501       0.06964434
O       -0.12809668       2.39255104      -0.01589049
O       -1.09953812      -1.20702925       1.79298608
13
Lattice="529.1772105638412 0.0 0.0 0.0 529.1772105638412 0.0 0.0 0.0 529.1772105638412" Properties=species:S:1:pos:R:3 ipi_comment="Step:          80  Bead:       0 positions{ase}  cell{ase}" pbc="T T T"
H       -0.18814029       1.27716569       0.01105265
H       -0.47194873      -0.83397527       0.85004167
H        1.00967808      -0.07238992       0.03354958
H        2.79492694      -0.96919150      -0.18294986
H        3.11930188       0.61635646       0.11790940
H       -0.50487698       2.85503674      -0.88271991
H       -0.78423734       2.86110188       0.60539307
H       -0.48285041      -1.58165671       2.50460699
H       -1.96247975      -1.54132155       1.73203876
O        0.01861223      -0.10525610       0.02307195
O        2.41067146      -0.08498160       0.09104055
O       -0.16878371       2.40632352      -0.02818711
O       -1.05694040      -1.15498106       1.81365414
13
Lattice="529.1772105638412 0.0 0.0 0.0 529.1772105638412 0.0 0.0 0.0 529.1772105638412" Properties=species:S:1:pos:R:3 ipi_comment="Step:         100  Bead:       0 positions{ase}  cell{ase}" pbc="T T T"
H       -0.25772056       1.08806488      -0.04705107
H       -0.46559557      -0.49056216       0.81860189
H        1.23161704      -0.13349676       0.00825554
H        2.97537633      -0.91799623      -0.22749608
H        3.06649761       0.62375231      -0.03267787
H       -0.55384970       2.65919339      -0.96963064
H       -0.85490924       2.74635514       0.66070136
H       -0.46809313      -1.74090731       2.43813875
H       -1.88515421      -1.66743890       1.84483339
O        0.02906373      -0.06517034      -0.02443422
O        2.43941681      -0.12323288       0.11668824
O       -0.23375446       2.41660053      -0.02774725
O       -1.04747160      -1.13910863       1.85367449
13
Lattice="529.1772105638412 0.0 0.0 0.0 529.1772105638412 0.0 0.0 0.0 529.1772105638412" Properties=species:S:1:pos:R:3 ipi_comment="Step:         120  Bead:       0 positions{ase}  cell{ase}" pbc="T T T"
H       -0.09102531       1.23226248      -0.01193417
H       -0.40160624      -0.53436772       0.84023207
H        1.37130663      -0.08456564       0.12341575
H        3.08773515      -0.94777469      -0.23740453
H        2.85882368       0.70980325      -0.12160300
H       -0.75552805       2.76851344      -0.86504332
H       -0.93638957       2.71379821       0.64748287
H       -0.40552779      -1.77820612       2.39203672
H       -1.92207800      -1.60632528       1.73248293
O        0.04114365      -0.00173742      -0.09299322
O        2.49428553      -0.16394132       0.12021925
O       -0.29692594       2.37302706      -0.02152607
O       -1.05235398      -1.13754978       1.91210390
13
Lattice="529.1772105638412 0.0 0.0 0.0 529.1772105638412 0.0 0.0 0.0 529.1772105638412" Properties=species:S:1:pos:R:3 ipi_comment="Step:         140  Bead:       0 positions{ase}  cell{ase}" pbc="T T T"
H       -0.29605688       1.17246962      -0.02065842
H       -0.40620304      -0.56191422       0.59277525
H        1.33824262      -0.26588944      -0.16427484
H        3.11035425      -0.92580258      -0.29819244
H        2.99792696       0.60842336      -0.25807179
H       -0.83868337       2.75053842      -0.85240941
H       -0.87056838       2.60604972       0.78848728
H       -0.58782720      -1.91913764       2.37862388
H       -1.89240788      -1.54080032       1.73349702
O        0.06732685       0.01192203      -0.09920179
O        2.54271381      -0.15252322       0.11612725
O       -0.39550915       2.35856530      -0.01962413
O       -1.01257246      -1.11356374       1.95829789
13
Lattice="529.1772105638412 0.0 0.0 0.0 529.1772105638412 0.0 0.0 0.0 529.1772105638412" Properties=species:S:1:pos:R:3 ipi_comment="Step:         160  Bead:       0 positions{ase}  cell{ase}" pbc="T T T"
H       -0.26299328       1.16951657      -0.06810303
H       -0.24112708      -0.53517776       0.74335827
H        1.44983675      -0.01433015      -0.00445639
H        2.99963645      -1.05653875      -0.20510409
H        3.01389488       0.62853034      -0.29000821
H       -1.08206030       2.78094772      -0.75296315
H       -0.91304040       2.72362927       0.77844817
H       -0.53276470      -1.81776647       2.48663490
H       -1.91724503      -1.36209187       1.87923202
O        0.09674514      -0.02986589      -0.11295870
O        2.58535598      -0.15140710       0.07584324
O       -0.50395127       2.35521200      -0.02153550
O       -0.97363032      -1.10688624       1.97221005
13
Lattice="529.1772105638412 0.0 0.0 0.0 529.1772105638412 0.0 0.0 0.0 529.1772105638412" Properties=species:S:1:pos:R:3 ipi_comment="Step:         180  Bead:       0 positions{ase}  cell{ase}" pbc="T T T"
H       -0.17789197       1.02573224      -0.03886576
H       -0.25486558      -0.48309545       0.84270861
H        1.49116578      -0.12715055       0.11031548
H        2.98697662      -1.01736901      -0.23582973
H        3.23624906       0.48047660      -0.33811917
H       -1.19146768       2.71470088      -0.72496818
H       -0.86937229       2.70369590       0.84082984
H       -0.49134283      -1.65229813       2.56617183
H       -1.87346973      -1.30614032       2.08931651
O        0.13647388      -0.06046737      -0.07008344
O        2.59910457      -0.13137784       0.05175526
O       -0.61517072       2.34268914      -0.02776513
O       -0.93742574      -1.07256596       1.92534544
13
Lattice="529.1772105638412 0.0 0.0 0.0 529.1772105638412 0.0 0.0 0.0 529.1772105638412" Properties=species:S:1:pos:R:3 ipi_comment="Step:         200  Bead:       0 positions{ase}  cell{ase}" pbc="T T T"
H       -0.25946679       0.99084004      -0.10701861
H       -0.41327501      -0.65118351       0.86791393
H        1.49473868       0.03153489      -0.12079380
H        2.94568478      -1.05342624      -0.15141286
H        3.16722784       0.58095468      -0.37546994
H       -1.30500973       2.76113429      -0.59997648
H       -0.90560212       2.77676862       0.82028350
H       -0.40964408      -1.45738311       2.60583901
H       -1.83828641      -1.06314748       2.02736457
O        0.16885560      -0.05304522       0.00199773
O        2.62414528      -0.14162066       0.01805721
O       -0.69658062       2.30469685      -0.00869551
O       -0.88952107      -1.06814029       1.87701757
13
Lattice="529.1772105638412 0.0 0.0 0.0 529.1772105638412 0.0 0.0 0.0 529.1772105638412" Properties=species:S:1:pos:R:3 ipi_comment="Step:         220  Bead:       0 positions{ase}  cell{ase}" pbc="T T T"
H       -0.29515970       1.00729269       0.08315326
H       -0.28073599      -0.56820655       1.02843969
H        1.40855911      -0.10331491       0.02377085
H        3.05595896      -0.99443083      -0.14963364
H        3.20870555       0.50007200      -0.55486954
H       -1.34997849       2.68831440      -0.61002448
H       -0.76162853       2.82519196       0.80482534
H       -0.46380143      -1.39785636       2.64677848
H       -1.74913256      -0.91933867       2.12807197
O        0.18594309      -0.00812909       0.03275538
O        2.63435429      -0.12835760      -0.01289672
O       -0.76856207       2.26393860       0.01102803
O       -0.86351173      -1.09322450       1.83016029
13
Lattice="529.1772105638412 0.0 0.0 0.0 529.1772105638412 0.0 0.0 0.0 529.1772105638412" Properties=species:S:1:pos:R:3 ipi_comment="Step:         240  Bead:       0 positions{ase}  cell{ase}" pbc="T T T"
H       -0.19657106       1.35178498       0.00117040
H       -0.28373283      -0.44431694       0.98169810
H        1.26742743       0.03842552       0.05811608
H        3.08254414      -0.96080764      -0.10071390
H        3.10785365       0.47412253      -0.73327201
H       -1.34466512       2.55688418      -0.68916884
H       -0.64940848       2.91308990       0.69161025
H       -0.40118267      -1.42669873       2.64766604
H       -1.70311636      -0.78656524       2.09261204
O        0.21769007       0.03068823       0.03681404
O        2.65963739      -0.09945851      -0.03495504
O       -0.83458442       2.22211014       0.04140646
O       -0.86122068      -1.16184138       1.84618330
13
Lattice="529.1772105638412 0.0 0.0 0.0 529.1772105638412 0.0 0.0 0.0 529.1772105638412" Properties=species:S:1:pos:R:3 ipi_comment="Step:         260  Bead:       0 positions{ase}  cell{ase}" pbc="T T T"
H       -0.27572680       1.23474429       0.06317093
H       -0.23502287      -0.51844861       0.86966832
H        1.42763896       0.04409672      -0.01536413
H        3.17424219      -0.90229249       0.01672233
H        3.09547464       0.44151064      -0.84427974
H       -1.28098963       2.49688829      -0.77875242
H       -0.60358531       3.04176211       0.47965280
H       -0.30997404      -1.38939270       2.63510173
H       -1.62523848      -0.74207010       2.24557950
O        0.25700082       0.08007225       0.05198823
O        2.68526420      -0.06209428      -0.07539727
O       -0.90594795       2.21095184       0.07596789
O       -0.88551984      -1.23685672       1.85441880
13
Lattice="529.1772105638412 0.0 0.0 0.0 529.1772105638412 0.0 0.0 0.0 529.1772105638412" Properties=species:S:1:pos:R:3 ipi_comment="Step:         280  Bead:       0 positions{ase}  cell{ase}" pbc="T T T"
H       -0.28764281       1.28184906       0.17445536
H       -0.18575268      -0.41719843       0.82099401
H        1.56955229       0.00424089       0.03795578
H        3.16378515      -0.91310961       0.06107059
H        3.18685477       0.43298951      -0.91601446
H       -1.35301858       2.37173893      -0.80009831
H       -0.49098931       3.02480650       0.39284121
H       -0.24741655      -1.57773439       2.54225716
H       -1.60354892      -0.84889180       2.34489220
O        0.28701322       0.11612704       0.09289776
O        2.72790151      -0.02461017      -0.14053118
O       -0.99236011       2.22366606       0.09990994
O       -0.89601420      -1.30117770       1.85552936
13
Lattice="529.1772105638412 0.0 0.0 0.0 529.1772105638412 0.0 0.0 0.0 529.1772105638412" Properties=species:S:1:pos:R:3 ipi_comment="Step:         300  Bead:       0 positions{ase}  cell{ase}" pbc="T T T"
H       -0.35972849       1.30253543       0.04472762
H       -0.20466159      -0.40614320       0.91401223
H        1.51308889       0.13053323      -0.09647514
H        3.17980229      -0.92640518      -0.04088151
H        3.22768706       0.40756704      -0.98112661
H       -1.39342412       2.37649591      -0.78092772
H       -0.52612029       3.04809781       0.23885691
H       -0.34618530      -1.96194042       2.41978354
H       -1.54576103      -0.97178405       2.47707993
O        0.30447961       0.15068904       0.13940161
O        2.76946522      -0.00270035      -0.18628317
O       -1.05975683       2.22154052       0.13074919
O       -0.87459783      -1.33285931       1.85312825
13
Lattice="529.1772105638412 0.0 0.0 0.0 529.1772105638412 0.0 0.0 0.0 529.1772105638412" Properties=species:S:1:pos:R:3 ipi_comment="Step:         320  Bead:       0 positions{ase}  cell{ase}" pbc="T T T"
H       -0.47549251       1.30451660       0.21130997
H       -0.09732150      -0.47750982       0.98031904
H        1.51872716       0.03799051       0.01748628
H        3.15869946      -0.92154723      -0.08855423
H        3.24367688       0.38916726      -1.01268273
H       -1.63249326       2.37894096      -0.69184266
H       -0.55842187       3.05125870       0.32658963
H       -0.58687820      -2.28107597       2.09845459
H       -1.50699366      -1.04343250       2.53948157
O        0.28231533       0.14442729       0.19284134
O        2.77963547       0.01778668      -0.22827366
O       -1.07454651       2.23986102       0.10053021
O       -0.81749695      -1.33008205       1.86020999
13
Lattice="529.1772105638412 0.0 0.0 0.0 529.1772105638412 0.0 0.0 0.0 529.1772105638412" Properties=species:S:1:pos:R:3 ipi_comment="Step:         340  Bead:       0 positions{ase}  cell{ase}" pbc="T T T"
H       -0.41317764       1.21789375       0.17725748
H       -0.15187159      -0.50160216       0.95238814
H        1.58257732       0.07575007      -0.03833729
H        3.30007076      -0.83021854      -0.06496199
H        3.01738102       0.44253322      -1.07347903
H       -1.78890710       2.39997666      -0.59466222
H       -0.73322364       3.13710417       0.31721899
H       -0.90832499      -2.30830329       1.71546545
H       -1.44636623      -1.10955917       2.61007829
O        0.27664343       0.14850298       0.24246577
O        2.76115374       0.00424487      -0.24320489
O       -1.06676735       2.25483034       0.07059647
O       -0.76298338      -1.34095736       1.87936643
13
Lattice="529.1772105638412 0.0 0.0 0.0 529.1772105638412 0.0 0.0 0.0 529.1772105638412" Properties=species:S:1:pos:R:3 ipi_comment="Step:         360  Bead:       0 positions{ase}  cell{ase}" pbc="T T T"
H       -0.19630612       1.23553637       0.03938277
H       -0.23844502      -0.44054429       1.02094354
H        1.57497926      -0.04929293       0.03886311
H        3.25374566      -0.77775407      -0.06357961
H        2.96435337       0.36203471      -1.14483467
H       -1.86652786       2.32289427      -0.50839808
H       -0.78624859       3.13170592       0.33105979
H       -1.07031162      -2.18920203       1.47408721
H       -1.35366452      -1.12794794       2.65251573
O        0.30738610       0.16854600       0.27143273
O        2.69325081       0.02682948      -0.26247423
O       -1.06003541       2.24446370       0.06684506
O       -0.72142962      -1.36968102       1.88355930
13
Lattice="529.1772105638412 0.0 0.0 0.0 529.1772105638412 0.0 0.0 0.0 529.1772105638412" Properties=species:S:1:pos:R:3 ipi_comment="Step:         380  Bead:       0 positions{ase}  cell{ase}" pbc="T T T"
H       -0.26510208       1.08997490       0.22263536
H       -0.14476878      -0.52781260       1.12267202
H        1.55558213       0.22366694      -0.00305456
H        3.11294918      -0.80780004      -0.04110962
H        2.87278326       0.28619108      -1.16670531
H       -1.87581952       2.28638646      -0.43528690
H       -0.85133237       3.13830162       0.34042112
H       -1.27537124      -2.06231685       1.42741602
H       -1.20293363      -1.11979523       2.67659096
O        0.32887115       0.20475333       0.29384968
O        2.62195760       0.03289693      -0.26961091
O       -1.02917725       2.21277133       0.06137711
O       -0.68007620      -1.38274366       1.85462282
13
Lattice="529.1772105638412 0.0 0.0 0.0 529.1772105638412 0.0 0.0 0.0 529.1772105638412" Properties=species:S:1:pos:R:3 ipi_comment="Step:         400  Bead:       0 positions{ase}  cell{ase}" pbc="T T T"
H       -0.30899344       1.10284357       0.24978769
H       -0.17348911      -0.67223499       1.13809062
H        1.39171001       0.15243938       0.05254508
H        2.92036715      -0.86107660      -0.06663125
H        2.92933894       0.18593898      -1.22353828
H       -1.87999413       2.24413556      -0.36714089
H       -0.84807522       3.10379599       0.43154278
H       -1.38551896      -1.93694211       1.44016106
H       -0.93453485      -1.01431263       2.70274317
O        0.31358698       0.24728183       0.33405978
O        2.59646502       0.02919573      -0.31082483
O       -1.01046818       2.20837887       0.06657260
O       -0.64445154      -1.40443853       1.83694952
13
Lattice="529.1772105638412 0.0 0.0 0.0 529.1772105638412 0.0 0.0 0.0 529.1772105638412" Properties=species:S:1:pos:R:3 ipi_comment="Step:         420  Bead:       0 positions{ase}  cell{ase}" pbc="T T T"
H       -0.34519034       1.39188187       0.14354692
H       -0.30470442      -0.55651242       1.10612950
H        1.27892516       0.16046140      -0.04994213
H        2.93336388      -0.89459900      -0.16961048
H        2.96939607       0.19747842      -1.27121303
H       -1.90768675       2.28920580      -0.30809271
H       -0.81720034       3.09973118       0.53148133
H       -1.45844242      -1.90764830       1.62085961
H       -0.77468296      -1.17073186       2.76682772
O        0.29300807       0.26196287       0.35971902
O        2.61426096      -0.00527182      -0.35834745
O       -1.02807517       2.23836103       0.08883257
O       -0.61542800      -1.43383020       1.83576999
13
Lattice="529.1772105638412 0.0 0.0 0.0 529.1772105638412 0.0 0.0 0.0 529.1772105638412" Properties=species:S:1:pos:R:3 ipi_comment="Step:         440  Bead:       0 positions{ase}  cell{ase}" pbc="T T T"
H       -0.47501844       1.22419852       0.17486894
H       -0.20542157      -0.58196606       1.11078964
H        1.38866411       0.14504832      -0.11639044
H        3.11050869      -0.85455413      -0.19743420
H        2.98012189       0.27832148      -1.26845965
H       -1.90885276       2.42097340      -0.36365980
H       -0.87594948       3.13969801       0.59429529
H       -1.44745351      -1.94433770       1.66534129
H       -0.52660415      -1.31734957       2.76714076
O        0.28191290       0.26429146       0.36434050
O        2.63601620      -0.03760257      -0.38523983
O       -1.06240151       2.29993992       0.10578139
O       -0.62113522      -1.45915475       1.84131226
13
Lattice="529.1772105638412 0.0 0.0 0.0 529.1772105638412 0.0 0.0 0.0 529.1772105638412" Properties=species:S:1:pos:R:3 ipi_comment="Step:         460  Bead:       0 positions{ase}  cell{ase}" pbc="T T T"
H       -0.27626431       1.10403982       0.31599195
H       -0.21938322      -0.74624009       1.17869232
H        1.41308571       0.01302231       0.07390268
H        3.16952001      -0.83477480      -0.14144486
H        2.99911756       0.38668060      -1.21263265
H       -1.88983879       2.61077092      -0.40108942
H       -0.92375765       3.11927837       0.72761927
H       -1.50588645      -1.87857585       1.69682506
H       -0.37577176      -1.58887368       2.73256685
O        0.28579883       0.27320421       0.35186721
O        2.63115079      -0.06346463      -0.40211327
O       -1.08956617       2.35891910       0.11088622
O       -0.61509452      -1.48072696       1.82750360
13
Lattice="529.1772105638412 0.0 0.0 0.0 529.1772105638412 0.0 0.0 0.0 529.1772105638412" Properties=species:S:1:pos:R:3 ipi_comment="Step:         480  Bead:       0 positions{ase}  cell{ase}" pbc="T T T"
H       -0.37445295       1.40365341       0.24215802
H       -0.15671359      -0.53388014       1.16274113
H        1.31634971       0.29979867       0.00502271
H        3.35173365      -0.70355523      -0.14579471
H        3.04059083       0.46566071      -1.08671897
H       -1.85499325       2.57287782      -0.48698916
H       -0.99485271       3.17273200       0.74045439
H       -1.55109215      -1.77372207       1.72616342
H       -0.23771980      -1.77632383       2.64878329
O        0.31559580       0.25139971       0.34948581
O        2.60308906      -0.09543012      -0.41257700
O       -1.09677415       2.39458076       0.12376236
O       -0.61894817      -1.52196290       1.83784375
13
Lattice="529.1772105638412 0.0 0.0 0.0 529.1772105638412 0.0 0.0 0.0 529.1772105638412" Properties=species:S:1:pos:R:3 ipi_comment="Step:         500  Bead:       0 positions{ase}  cell{ase}" pbc="T T T"
H       -0.43623249       1.42859324       0.22695840
H       -0.03188652      -0.48126819       1.00189142
H        1.38128996       0.18548561       0.13503490
H        3.32842135      -0.67537411      -0.03436890
H        3.02501315       0.45003100      -1.07407199
H       -1.77403979       2.38340687      -0.56885974
H       -1.01508298       3.20311895       0.75454024
H       -1.52591869      -1.75155531       1.96048628
H       -0.20836745      -1.98753988       2.58981665
O        0.28268079       0.29267585       0.34581432
O        2.57953100      -0.10189923      -0.43087859
O       -1.07672704       2.39834702       0.14759079
O       -0.59539686      -1.53707711       1.82429441
13
Lattice="529.1772105638412 0.0 0.0 0.0 529.1772105638412 0.0 0.0 0.0 529.1772105638412" Properties=species:S:1:pos:R:3 ipi_comment="Step:         520  Bead:       0 positions{ase}  cell{ase}" pbc="T T T"
H       -0.37897613       1.33659134       0.41858394
H       -0.14400382      -0.42270924       0.95167530
H        1.62037611       0.03497732      -0.11214837
H        3.21579701      -0.63632757       0.13150297
H        2.95648662       0.47183733      -1.11840115
H       -1.81893219       2.52900796      -0.50090081
H       -1.06342109       3.20325145       0.71169230
H       -1.51558390      -1.60915810       2.01579429
H       -0.09650063      -2.11378027       2.49758510
O        0.24611286       0.34083802       0.33685280
O        2.55614218      -0.09897851      -0.44252009
O       -1.03927615       2.34504726       0.15782248
O       -0.57491000      -1.53730428       1.83441647
13
Lattice="529.1772105638412 0.0 0.0 0.0 529.1772105638412 0.0 0.0 0.0 529.1772105638412" Properties=species:S:1:pos:R:3 ipi_comment="Step:         540  Bead:       0 positions{ase}  cell{ase}" pbc="T T T"
H       -0.46746849       1.34156110       0.14461924
H       -0.05297678      -0.43032718       0.98260293
H        1.25629324       0.21935835      -0.14639096
H        3.29878242      -0.52713189       0.08527891
H        3.08798234       0.37317345      -1.14893918
H       -1.73527383       2.45725328      -0.54399409
H       -0.96702864       3.11668601       0.79466986
H       -1.45178990      -1.61773815       2.18138491
H       -0.08434114      -2.28527527       2.34865950
O        0.23312426       0.35808750       0.33179082
O        2.54176776      -0.10079218      -0.46532685
O       -1.03245397       2.32611061       0.19599591
O       -0.56123262      -1.52459664       1.84285498
13
Lattice="529.1772105638412 0.0 0.0 0.0 529.1772105638412 0.0 0.0 0.0 529.1772105638412" Properties=species:S:1:pos:R:3 ipi_comment="Step:         560  Bead:       0 positions{ase}  cell{ase}" pbc="T T T"
H       -0.26337826       1.40328046       0.25969617
H       -0.12661800      -0.43986892       1.01029478
H        1.37399354       0.19004555       0.02466672
H        3.14134148      -0.55940752       0.13152063
H        3.06165740       0.38396378      -1.18372965
H       -1.69484015       2.64473627      -0.51916911
H       -0.88788875       3.04174072       0.86703235
H       -1.43601111      -1.60645203       2.20318208
H       -0.02597551      -2.35824033       2.08794686
O        0.26170803       0.29511858       0.32352083
O        2.50841091      -0.07519650      -0.47117993
O       -1.06235914       2.34812334       0.19029907
O       -0.54281579      -1.51252735       1.85111054
13
Lattice="529.1772105638412 0.0 0.0 0.0 529.1772105638412 0.0 0.0 0.0 529.1772105638412" Properties=species:S:1:pos:R:3 ipi_comment="Step:         580  Bead:       0 positions{ase}  cell{ase}" pbc="T T T"
H       -0.35823363       1.10598174       0.28490550
H       -0.08835805      -0.49272006       1.01183040
H        1.49697041       0.25185842      -0.11079055
H        3.06296916      -0.66034061       0.07680208
H        2.99211472       0.47642868      -1.17366433
H       -1.61530191       2.82956381      -0.49830021
H       -0.98069524       3.13473548       0.82263984
H       -1.42381164      -1.62760630       2.17652929
H       -0.09913511      -2.40808612       1.88877070
O        0.26815339       0.21956083       0.33593188
O        2.51023226      -0.05748090      -0.45815641
O       -1.07306526       2.38114594       0.19800041
O       -0.53056276      -1.48203852       1.84334746
13
Lattice="529.1772105638412 0.0 0.0 0.0 529.1772105638412 0.0 0.0 0.0 529.1772105638412" Properties=species:S:1:pos:R:3 ipi_comment="Step:         600  Bead:       0 positions{ase}  cell{ase}" pbc="T T T"
H       -0.40128576       1.06598105       0.21899344
H       -0.17838814      -0.73048563       1.16811453
H        1.41684865       0.03719772      -0.09888674
H        3.14062030      -0.68480641      -0.07303981
H        3.13002540       0.52849379      -1.07191059
H       -1.55829120       2.68776900      -0.55961392
H       -1.04613920       3.12038188       0.87490587
H       -1.45755540      -1.46422846       2.10128371
H       -0.11566860      -2.38575371       1.80641901
O        0.21684512       0.21563492       0.35010823
O        2.53975326      -0.05189849      -0.48111374
O       -1.07494161       2.39620792       0.22408983
O       -0.50334871      -1.47133355       1.83312426
13
Lattice="529.1772105638412 0.0 0.0 0.0 529.1772105638412 0.0 0.0 0.0 529.1772105638412" Properties=species:S:1:pos:R:3 ipi_comment="Step:         620  Bead:       0 positions{ase}  cell{ase}" pbc="T T T"
H       -0.16211227       1.30717550       0.38314302
H       -0.21254132      -0.61887535       1.02276077
H        1.19320868       0.13250609       0.00705732
H        3.21160231      -0.71478652      -0.24840228
H        3.07309922       0.68462341      -0.92852907
H       -1.59153202       2.64295771      -0.52789952
H       -1.24306617       3.13157308       0.82501299
H       -1.48723088      -1.59631223       2.08244877
H       -0.25654465      -2.41684354       1.77626754
O        0.19050018       0.22879560       0.33601791
O        2.56508033      -0.05067552      -0.49334886
O       -1.05936567       2.37312762       0.23582648
O       -0.49237234      -1.48641892       1.84610053
13
Lattice="529.1772105638412 0.0 0.0 0.0 529.1772105638412 0.0 0.0 0.0 529.1772105638412" Properties=species:S:1:pos:R:3 ipi_comment="Step:         640  Bead:       0 positions{ase}  cell{ase}" pbc="T T T"
H       -0.44835378       1.42180589       0.30301928
H       -0.17294111      -0.69417982       1.10822514
H        1.20031115       0.17281237       0.06984473
H        3.25315187      -0.67819979      -0.37880703
H        3.03244014       0.71523987      -0.87087970
H       -1.58984769       2.41878398      -0.53037600
H       -1.15445218       3.02428261       0.96489151
H       -1.50661334      -1.50601402       2.21607417
H       -0.13739618      -2.38379527       1.63938078
O        0.21412689       0.26906125       0.29345277
O        2.54015237      -0.03714631      -0.50447760
O       -1.03176047       2.36926038       0.24052735
O       -0.51561530      -1.53248551       1.88693368
13