13
Lattice="529.1772105638412 0.0 0.0 0.0 529.1772105638412 0.0 0.0 0.0 529.1772105638412" Properties=species:S:1:pos:R:3:forces_component_raw:R:3 ipi_comment="Step:           0  Bead:       0 forces_component_raw{ase}  cell{ase}" pbc="T T T"
H        0.00000000       0.00000000       0.00000000       0.02757306      -0.26010327       0.15027901
H        0.00000000       0.00000000       0.00000000       0.83075393       0.76305992      -1.21225163
H        0.00000000       0.00000000       0.00000000       0.10016705       0.02567539      -0.38877136
H        0.00000000       0.00000000       0.00000000       0.58809040      -0.58572837       0.40345098
H        0.00000000       0.00000000       0.00000000       0.18719394       0.16959743       0.15905592
H        0.00000000       0.00000000       0.00000000      -0.02412238       0.38436469      -0.86039707
H        0.00000000       0.00000000       0.00000000       0.00128281      -0.39980550      -0.04326239
H        0.00000000       0.00000000       0.00000000       0.19474078       0.11533933       0.00967284
H        0.00000000       0.00000000       0.00000000      -0.48607567      -0.16103683      -0.22604160
O        0.00000000       0.00000000       0.00000000      -1.35240040      -0.87747253       1.66872992
O        0.00000000       0.00000000       0.00000000      -0.40150242       0.28653604      -0.42984216
O        0.00000000       0.00000000       0.00000000      -0.03940205       0.37426695       0.71229606
O        0.00000000       0.00000000       0.00000000       0.37370096       0.16530674       0.05708149
13
Lattice="529.1772105638412 0.0 0.0 0.0 529.1772105638412 0.0 0.0 0.0 529.1772105638412" Properties=species:S:1:pos:R:3:forces_component_raw:R:3 ipi_comment="Step:          20  Bead:       0 forces_component_raw{ase}  cell{ase}" pbc="T T T"
H        0.00000000       0.00000000       0.00000000      -0.23933420      -0.33407975       0.10091437
H        0.00000000       0.00000000       0.00000000       0.79423329       0.99799932      -0.43138309
H        0.00000000       0.00000000       0.00000000       0.01399242      -0.48225064       0.20869497
H        0.00000000       0.00000000       0.00000000       0.46558533      -1.07128396       0.08664494
H        0.00000000       0.00000000       0.00000000      -0.36713245      -0.15092597      -0.21220344
H        0.00000000       0.00000000       0.00000000      -0.11873061       0.85852793      -0.95751223
H        0.00000000       0.00000000       0.00000000       0.04993471      -0.03585293      -0.48130084
H        0.00000000       0.00000000       0.00000000       0.59505258      -0.14479339       1.00593555
H        0.00000000       0.00000000       0.00000000      -0.26186022      -0.11025902      -0.14988290
O        0.00000000       0.00000000       0.00000000      -1.00448000      -0.84407281       0.38483219
O        0.00000000       0.00000000       0.00000000       0.56549311       1.27050719       0.02746261
O        0.00000000       0.00000000       0.00000000      -0.00212709      -0.07469380       1.36927616
O        0.00000000       0.00000000       0.00000000      -0.49062688       0.12117784      -0.95147831
13
Lattice="529.1772105638412 0.0 0.0 0.0 529.1772105638412 0.0 0.0 0.0 529.1772105638412" Properties=species:S:1:pos:R:3:forces_component_raw:R:3 ipi_comment="Step:          40  Bead:       0 forces_component_raw{ase}  cell{ase}" pbc="T T T"
H        0.00000000       0.00000000       0.00000000       0.29878732       0.25264078      -0.32492923
H        0.00000000       0.00000000       0.00000000       0.11966078       0.42215367      -0.92475535
H        0.00000000       0.00000000       0.00000000      -0.36986049       0.43321458       0.00285872
H        0.00000000       0.00000000       0.00000000       0.64506751      -0.42099493       0.08352453
H        0.00000000       0.00000000       0.00000000      -0.35835104      -0.91757116      -0.25260317
H        0.00000000       0.00000000       0.00000000       0.02258283       0.25531527      -0.78186395
H        0.00000000       0.00000000       0.00000000       0.20316404      -0.35475674      -0.17809105
H        0.00000000       0.00000000       0.00000000       0.47189987      -0.49798458       1.02065687
H        0.00000000       0.00000000       0.00000000      -0.17034245      -0.17218588       0.01625894
O        0.00000000       0.00000000       0.00000000      -0.38733903      -1.56181563       1.10274537
O        0.00000000       0.00000000       0.00000000       0.27187666       1.15973375       0.07256515
O        0.00000000       0.00000000       0.00000000      -0.36783493       0.87835623       1.01403168
O        0.00000000       0.00000000       0.00000000      -0.37931106       0.52389465      -0.85039852
13
Lattice="529.1772105638412 0.0 0.0 0.0 529.1772105638412 0.0 0.0 0.0 529.1772105638412" Properties=species:S:1:pos:R:3:forces_component_raw:R:3 ipi_comment="Step:          60  Bead:       0 forces_component_raw{ase}  cell{ase}" pbc="T T T"
H        0.00000000       0.00000000       0.00000000      -0.81860224       0.60484993       0.14143050
H        0.00000000       0.00000000       0.00000000       0.64089436       0.25829216      -0.95873633
H        0.00000000       0.00000000       0.00000000       0.22655718      -0.71578370       0.04668474
H        0.00000000       0.00000000       0.00000000       0.22335156      -0.51430019      -0.08703648
H        0.00000000       0.00000000       0.00000000      -0.86434037      -0.67001952      -0.13578476
H        0.00000000       0.00000000       0.00000000      -0.08277767       0.36433994      -0.19342329
H        0.00000000       0.00000000       0.00000000      -0.15182588       0.14718501       0.09576605
H        0.00000000       0.00000000       0.00000000       0.86183579      -0.27894123       0.65229252
H        0.00000000       0.00000000       0.00000000      -0.26646479       0.13008086      -0.28349782
O        0.00000000       0.00000000       0.00000000      -0.06107342      -0.15951465       0.62932018
O        0.00000000       0.00000000       0.00000000       0.96598701       1.17169558       0.20517268
O        0.00000000       0.00000000       0.00000000       0.26598694      -0.30463907      -0.11706865
O        0.00000000       0.00000000       0.00000000      -0.93952848      -0.03324514       0.00488065
13
Lattice="529.1772105638412 0.0 0.0 0.0 529.1772105638412 0.0 0.0 0.0 529.1772105638412" Properties=species:S:1:pos:R:3:forces_component_raw:R:3 ipi_comment="Step:          80  Bead:       0 forces_component_raw{ase}  cell{ase}" pbc="T T T"
H        0.00000000       0.00000000       0.00000000       0.48778672       1.02517556      -0.06520108
H        0.00000000       0.00000000       0.00000000       0.42965111       0.63472537      -0.22111716
H        0.00000000       0.00000000       0.00000000       0.06667267       0.84908457      -0.38610705
H        0.00000000       0.00000000       0.00000000       0.10556848       0.48881132       0.06797488
H        0.00000000       0.00000000       0.00000000      -0.64156766      -0.89874601       0.03022343
H        0.00000000       0.00000000       0.00000000       0.33349773      -0.20971814      -0.26881765
H        0.00000000       0.00000000       0.00000000      -0.39592516       0.17315081       0.94944432
H        0.00000000       0.00000000       0.00000000      -0.05824439      -0.35261184       0.21226638
H        0.00000000       0.00000000       0.00000000       0.00594353      -0.33939956       0.30276380
O        0.00000000       0.00000000       0.00000000      -0.80862408      -1.58036616       0.61162752
O        0.00000000       0.00000000       0.00000000       0.84354886       0.04552269      -0.03663277
O        0.00000000       0.00000000       0.00000000      -0.15500557      -0.13871325      -0.75405208
O        0.00000000       0.00000000       0.00000000      -0.21330225       0.30308464      -0.44237255
13
Lattice="529.1772105638412 0.0 0.0 0.0 529.1772105638412 0.0 0.0 0.0 529.1772105638412" Properties=species:S:1:pos:R:3:forces_component_raw:R:3 ipi_comment="Step:         100  Bead:       0 forces_component_raw{ase}  cell{ase}" pbc="T T T"
H        0.00000000       0.00000000       0.00000000      -0.94846093       0.57868407      -0.11861758
H        0.00000000       0.00000000       0.00000000       0.63172696       0.39287008      -0.39678008
H        0.00000000       0.00000000       0.00000000       0.16602137      -1.36404085       0.39835450
H        0.00000000       0.00000000       0.00000000      -0.85233748       0.69550277       0.53471252
H        0.00000000       0.00000000       0.00000000      -0.46065507      -0.50417245       0.37935402
H        0.00000000       0.00000000       0.00000000      -0.11825084      -0.14504723       0.63634625
H        0.00000000       0.00000000       0.00000000      -1.02119449       0.80370405       0.79171893
H        0.00000000       0.00000000       0.00000000      -0.00160698       0.58067615       0.08643033
H        0.00000000       0.00000000       0.00000000      -0.53817225       0.18422160      -0.12177898
O        0.00000000       0.00000000       0.00000000       0.36718617       0.97201930       0.04612472
O        0.00000000       0.00000000       0.00000000       1.18790145      -0.09439684      -0.99601146
O        0.00000000       0.00000000       0.00000000       1.11034563      -1.05946896      -1.42370505
O        0.00000000       0.00000000       0.00000000       0.47749647      -1.04055169       0.18385187
13
Lattice="529.1772105638412 0.0 0.0 0.0 529.1772105638412 0.0 0.0 0.0 529.1772105638412" Properties=species:S:1:pos:R:3:forces_component_raw:R:3 ipi_comment="Step:         120  Bead:       0 forces_component_raw{ase}  cell{ase}" pbc="T T T"
H        0.00000000       0.00000000       0.00000000       0.80228188      -0.17565493       0.05323186
H        0.00000000       0.00000000       0.00000000      -0.25893812       0.10926028      -0.44064744
H        0.00000000       0.00000000       0.00000000       0.56233340       0.97006144      -0.17018621
H        0.00000000       0.00000000       0.00000000      -1.07968595       1.38962499       0.63129524
H        0.00000000       0.00000000       0.00000000       0.05168941      -0.53021315       0.22811884
H        0.00000000       0.00000000       0.00000000       0.50300826      -0.56471423       0.54055723
H        0.00000000       0.00000000       0.00000000      -0.90634307       0.48502802       1.36120798
H        0.00000000       0.00000000       0.00000000      -1.01273209       0.25547954      -0.15595480
H        0.00000000       0.00000000       0.00000000       0.04136437      -0.33545548       0.09604298
O        0.00000000       0.00000000       0.00000000      -0.96099503      -0.59011653       0.84678537
O        0.00000000       0.00000000       0.00000000       0.85845996      -1.13560188      -0.96496709
O        0.00000000       0.00000000       0.00000000       0.23005429       0.04658062      -2.02327139
O        0.00000000       0.00000000       0.00000000       1.16950269       0.07572131      -0.00221257
13
Lattice="529.1772105638412 0.0 0.0 0.0 529.1772105638412 0.0 0.0 0.0 529.1772105638412" Properties=species:S:1:pos:R:3:forces_component_raw:R:3 ipi_comment="Step:         140  Bead:       0 forces_component_raw{ase}  cell{ase}" pbc="T T T"
H        0.00000000       0.00000000       0.00000000      -0.56066992      -0.72636826       0.01146978
H        0.00000000       0.00000000       0.00000000       0.45457036      -0.20739312       0.21988745
H        0.00000000       0.00000000       0.00000000      -0.31481765      -0.65455077       0.46508636
H        0.00000000       0.00000000       0.00000000      -1.50299165       0.90045776       0.66287801
H        0.00000000       0.00000000       0.00000000       0.10821813       0.48309448      -0.02859691
H        0.00000000       0.00000000       0.00000000       0.10521145      -0.42505510       0.87061740
H        0.00000000       0.00000000       0.00000000      -0.78483637       0.55661259       0.94210967
H        0.00000000       0.00000000       0.00000000       0.46533058       0.52275551      -0.25234693
H        0.00000000       0.00000000       0.00000000      -0.28662533       0.42085968      -0.24873860
O        0.00000000       0.00000000       0.00000000       0.66365024       1.41181606      -0.33822934
O        0.00000000       0.00000000       0.00000000       1.27635261      -1.27203387      -0.82548848
O        0.00000000       0.00000000       0.00000000       0.74199873      -0.08596267      -1.88358044
O        0.00000000       0.00000000       0.00000000      -0.36539120      -0.92423229       0.40493202
13
Lattice="529.1772105638412 0.0 0.0 0.0 529.1772105638412 0.0 0.0 0.0 529.1772105638412" Properties=species:S:1:pos:R:3:forces_component_raw:R:3 ipi_comment="Step:         160  Bead:       0 forces_component_raw{ase}  cell{ase}" pbc="T T T"
H        0.00000000       0.00000000       0.00000000       0.69221405      -1.26686961      -0.19872202
H        0.00000000       0.00000000       0.00000000      -0.56853952       0.79037363      -0.10755370
H        0.00000000       0.00000000       0.00000000      -0.48106373       0.75639441      -0.38616502
H        0.00000000       0.00000000       0.00000000      -1.15548429       1.55372215       0.12784445
H        0.00000000       0.00000000       0.00000000       0.56566237       0.69395022      -0.45186687
H        0.00000000       0.00000000       0.00000000       0.41198056      -0.67394878       0.49683662
H        0.00000000       0.00000000       0.00000000      -0.30511331       0.19969196       0.81766312
H        0.00000000       0.00000000       0.00000000      -0.18567447       0.02871698      -0.13183782
H        0.00000000       0.00000000       0.00000000      -0.77428238      -0.31945939       0.16906771
O        0.00000000       0.00000000       0.00000000       0.34455421      -0.24520330       0.93310196
O        0.00000000       0.00000000       0.00000000       0.67518361      -2.35721227       0.29635407
O        0.00000000       0.00000000       0.00000000      -0.25782162       0.59602435      -1.22083564
O        0.00000000       0.00000000       0.00000000       1.03838452       0.24381963      -0.34388685
13
Lattice="529.1772105638412 0.0 0.0 0.0 529.1772105638412 0.0 0.0 0.0 529.1772105638412" Properties=species:S:1:pos:R:3:forces_component_raw:R:3 ipi_comment="Step:         180  Bead:       0 forces_component_raw{ase}  cell{ase}" pbc="T T T"
H        0.00000000       0.00000000       0.00000000       0.84000277      -0.74382724       0.18074917
H        0.00000000       0.00000000       0.00000000       0.68760177      -0.07887459      -0.24455862
H        0.00000000       0.00000000       0.00000000      -0.18684151      -0.46796928       0.65224243
H        0.00000000       0.00000000       0.00000000      -0.91415235       0.73162670       0.02155217
H        0.00000000       0.00000000       0.00000000       0.59333572       1.18489129      -0.37510187
H        0.00000000       0.00000000       0.00000000      -0.18274057       0.30710362      -0.20603753
H        0.00000000       0.00000000       0.00000000      -0.07657559       0.06016798       0.15034347
H        0.00000000       0.00000000       0.00000000       0.58953673      -0.02590296       0.03911877
H        0.00000000       0.00000000       0.00000000      -0.63972429       0.14540712      -0.29829602
O        0.00000000       0.00000000       0.00000000      -1.31736321       1.03776874      -0.28467775
O        0.00000000       0.00000000       0.00000000       0.66641300      -1.83408326       0.21459416
O        0.00000000       0.00000000       0.00000000       0.00754319      -0.16203126      -0.13466123
O        0.00000000       0.00000000       0.00000000      -0.06703568      -0.15427686       0.28473284
13
Lattice="529.1772105638412 0.0 0.0 0.0 529.1772105638412 0.0 0.0 0.0 529.1772105638412" Properties=species:S:1:pos:R:3:forces_component_raw:R:3 ipi_comment="Step:         200  Bead:       0 forces_component_raw{ase}  cell{ase}" pbc="T T T"
H        0.00000000       0.00000000       0.00000000      -0.38800547      -0.50530202       0.41330057
H        0.00000000       0.00000000       0.00000000      -0.48832174       0.29259371      -0.74880374
H        0.00000000       0.00000000       0.00000000      -0.24386986      -0.01480052      -0.36644897
H        0.00000000       0.00000000       0.00000000       0.04876083       0.61287702      -0.10215430
H        0.00000000       0.00000000       0.00000000       0.90346611       0.96477541      -0.29995734
H        0.00000000       0.00000000       0.00000000      -0.28442215       0.35161527      -0.71570535
H        0.00000000       0.00000000       0.00000000       0.05848359      -0.17740656       0.34283839
H        0.00000000       0.00000000       0.00000000      -0.04836153      -0.50638331       0.54274599
H        0.00000000       0.00000000       0.00000000      -0.67466965      -0.34885618       0.21815848
O        0.00000000       0.00000000       0.00000000       0.88365382       0.40201744       0.48495469
O        0.00000000       0.00000000       0.00000000      -0.65020230      -1.83211853       0.45238699
O        0.00000000       0.00000000       0.00000000       0.17832375       0.08165810       0.19575467
O        0.00000000       0.00000000       0.00000000       0.70516460       0.67933016      -0.41707009
13
Lattice="529.1772105638412 0.0 0.0 0.0 529.1772105638412 0.0 0.0 0.0 529.1772105638412" Properties=species:S:1:pos:R:3:forces_component_raw:R:3 ipi_comment="Step:         220  Bead:       0 forces_component_raw{ase}  cell{ase}" pbc="T T T"
H        0.00000000       0.00000000       0.00000000       0.58783254      -0.05409351      -0.29593526
H        0.00000000       0.00000000       0.00000000       0.92589944      -0.05208938      -0.29331762
H        0.00000000       0.00000000       0.00000000      -0.32790890       0.13562792      -0.02919518
H        0.00000000       0.00000000       0.00000000       0.17364873       0.04824509      -0.00786638
H        0.00000000       0.00000000       0.00000000       0.03640951       0.24025431      -0.09046212
H        0.00000000       0.00000000       0.00000000      -0.45376216       0.46472177      -0.67713829
H        0.00000000       0.00000000       0.00000000       0.09549034      -0.04439712      -0.08634543
H        0.00000000       0.00000000       0.00000000       1.00344075      -0.60096300       0.47538482
H        0.00000000       0.00000000       0.00000000      -1.23772417       0.22597935      -0.27529149
O        0.00000000       0.00000000       0.00000000      -0.75805054       0.42272699      -0.02598426
O        0.00000000       0.00000000       0.00000000       0.04968823      -0.51974077       0.15839067
O        0.00000000       0.00000000       0.00000000       0.20847295      -0.33848065       0.79037832
O        0.00000000       0.00000000       0.00000000      -0.30343674       0.07220899       0.35738223
13
Lattice="529.1772105638412 0.0 0.0 0.0 529.1772105638412 0.0 0.0 0.0 529.1772105638412" Properties=species:S:1:pos:R:3:forces_component_raw:R:3 ipi_comment="Step:         240  Bead:       0 forces_component_raw{ase}  cell{ase}" pbc="T T T"
H        0.00000000       0.00000000       0.00000000      -0.53705014      -0.24615118      -0.02285864
H        0.00000000       0.00000000       0.00000000      -0.53106504       0.98221988       0.08255228
H        0.00000000       0.00000000       0.00000000       0.57096714      -0.60009935      -0.34779200
H        0.00000000       0.00000000       0.00000000       0.80827202      -1.04619039       0.55467004
H        0.00000000       0.00000000       0.00000000      -0.28024815      -0.06472952       0.05111505
H        0.00000000       0.00000000       0.00000000      -0.46035368       0.46240763      -0.58810020
H        0.00000000       0.00000000       0.00000000       0.00681217       0.02765773      -0.16817121
H        0.00000000       0.00000000       0.00000000       0.03880466      -0.88494674       0.73950354
H        0.00000000       0.00000000       0.00000000      -0.39042155      -0.29112417       0.16548105
O        0.00000000       0.00000000       0.00000000       0.56957608       0.42921107      -0.19750117
O        0.00000000       0.00000000       0.00000000      -0.48043115       1.17301635      -0.56905381
O        0.00000000       0.00000000       0.00000000       0.41983891      -0.49592342       0.82947484
O        0.00000000       0.00000000       0.00000000       0.26529872       0.55465212      -0.52931975
13
Lattice="529.1772105638412 0.0 0.0 0.0 529.1772105638412 0.0 0.0 0.0 529.1772105638412" Properties=species:S:1:pos:R:3:forces_component_raw:R:3 ipi_comment="Step:         260  Bead:       0 forces_component_raw{ase}  cell{ase}" pbc="T T T"
H        0.00000000       0.00000000       0.00000000       0.53356874       0.64710715      -0.45081952
H        0.00000000       0.00000000       0.00000000       0.41449294      -0.19450115      -0.57007570
H        0.00000000       0.00000000       0.00000000      -0.07681588       0.22135313       0.04239424
H        0.00000000       0.00000000       0.00000000       1.43043680      -0.76816716       0.63496430
H        0.00000000       0.00000000       0.00000000       0.07817642      -0.53339383       0.43328409
H        0.00000000       0.00000000       0.00000000       0.12632963      -0.12369176       0.13990884
H        0.00000000       0.00000000       0.00000000       0.06223325      -0.16658702      -0.02237061
H        0.00000000       0.00000000       0.00000000       0.45057930      -0.62990048       0.33321134
H        0.00000000       0.00000000       0.00000000       0.07061918       0.16412001      -0.15417771
O        0.00000000       0.00000000       0.00000000      -0.66087626      -0.83654643       1.00956704
O        0.00000000       0.00000000       0.00000000      -1.45904383       1.31359131      -1.16764597
O        0.00000000       0.00000000       0.00000000      -0.40816542       0.52306720      -0.17362653
O        0.00000000       0.00000000       0.00000000      -0.56153488       0.38354903      -0.05461380
13
Lattice="529.1772105638412 0.0 0.0 0.0 529.1772105638412 0.0 0.0 0.0 529.1772105638412" Properties=species:S:1:pos:R:3:forces_component_raw:R:3 ipi_comment="Step:         280  Bead:       0 forces_component_raw{ase}  cell{ase}" pbc="T T T"
H        0.00000000       0.00000000       0.00000000      -1.20309750       1.39118849       0.31644205
H        0.00000000       0.00000000       0.00000000       0.39335026       0.30897884      -0.33677814
H        0.00000000       0.00000000       0.00000000       0.26714742      -0.53236067       0.09878824
H        0.00000000       0.00000000       0.00000000       0.44547808      -0.41536486       0.43995169
H        0.00000000       0.00000000       0.00000000      -0.33019134      -0.54530772       0.49219908
H        0.00000000       0.00000000       0.00000000       0.00642669       0.10623974       0.22921390
H        0.00000000       0.00000000       0.00000000      -0.02512265      -0.05465307      -0.06129482
H        0.00000000       0.00000000       0.00000000       0.06458298      -0.42765862       0.17008022
H        0.00000000       0.00000000       0.00000000      -0.24536453      -0.11377923       0.11312771
O        0.00000000       0.00000000       0.00000000       0.77133747      -1.58535679       0.35147794
O        0.00000000       0.00000000       0.00000000      -0.22995475       0.97077441      -1.02954743
O        0.00000000       0.00000000       0.00000000      -0.05280873       0.32034857      -0.37042080
O        0.00000000       0.00000000       0.00000000       0.13821660       0.57695088      -0.41323963
13
Lattice="529.1772105638412 0.0 0.0 0.0 529.1772105638412 0.0 0.0 0.0 529.1772105638412" Properties=species:S:1:pos:R:3:forces_component_raw:R:3 ipi_comment="Step:         300  Bead:       0 forces_component_raw{ase}  cell{ase}" pbc="T T T"
H        0.00000000       0.00000000       0.00000000      -0.05529459       0.43464121      -0.32081795
H        0.00000000       0.00000000       0.00000000       0.48376800       0.16823284      -0.30146856
H        0.00000000       0.00000000       0.00000000       0.88459678       0.50756055      -0.25083290
H        0.00000000       0.00000000       0.00000000       0.19704657       0.11658445      -0.15576098
H        0.00000000       0.00000000       0.00000000       0.02980395      -0.51895520       0.50511185
H        0.00000000       0.00000000       0.00000000      -0.16722725       0.07432446      -0.04665908
H        0.00000000       0.00000000       0.00000000      -0.07866161       0.00314469      -0.08329214
H        0.00000000       0.00000000       0.00000000       0.06352745       0.51907636      -0.11526710
H        0.00000000       0.00000000       0.00000000       0.32208557       0.07768864      -0.07522532
O        0.00000000       0.00000000       0.00000000      -1.43531177      -1.43540909       1.29513231
O        0.00000000       0.00000000       0.00000000      -0.24527563       0.22231142      -0.30771843
O        0.00000000       0.00000000       0.00000000       0.22476023       0.16784155       0.18876068
O        0.00000000       0.00000000       0.00000000      -0.22381769      -0.33704188      -0.33196237
13
Lattice="529.1772105638412 0.0 0.0 0.0 529.1772105638412 0.0 0.0 0.0 529.1772105638412" Properties=species:S:1:pos:R:3:forces_component_raw:R:3 ipi_comment="Step:         320  Bead:       0 forces_component_raw{ase}  cell{ase}" pbc="T T T"
H        0.00000000       0.00000000       0.00000000       0.36366964      -0.39554349       0.08097636
H        0.00000000       0.00000000       0.00000000       0.35345481       0.23821033      -0.13352430
H        0.00000000       0.00000000       0.00000000       0.68002249      -0.22063401       0.03539404
H        0.00000000       0.00000000       0.00000000      -0.68187860       0.31625092      -0.15864832
H        0.00000000       0.00000000       0.00000000       0.18470594       0.58105467      -0.66142845
H        0.00000000       0.00000000       0.00000000      -0.26270338       0.10272235      -0.14971452
H        0.00000000       0.00000000       0.00000000      -0.03597413       0.08242052       0.29648162
H        0.00000000       0.00000000       0.00000000       0.02129487       0.82144971       0.23151744
H        0.00000000       0.00000000       0.00000000       0.59176473      -0.20772224      -0.14740594
O        0.00000000       0.00000000       0.00000000      -1.49981960       0.30070244       0.39597337
O        0.00000000       0.00000000       0.00000000       0.55834333      -0.89259716       0.83452539
O        0.00000000       0.00000000       0.00000000       0.20605947      -0.14089129      -0.24655148
O        0.00000000       0.00000000       0.00000000      -0.47893958      -0.58542276      -0.37759521
13
Lattice="529.1772105638412 0.0 0.0 0.0 529.1772105638412 0.0 0.0 0.0 529.1772105638412" Properties=species:S:1:pos:R:3:forces_component_raw:R:3 ipi_comment="Step:         340  Bead:       0 forces_component_raw{ase}  cell{ase}" pbc="T T T"
H        0.00000000       0.00000000       0.00000000       0.31632486      -0.40633251       0.32587023
H        0.00000000       0.00000000       0.00000000      -0.65582667       0.12613277       0.10155163
H        0.00000000       0.00000000       0.00000000       0.19905273      -0.32119257       0.19389210
H        0.00000000       0.00000000       0.00000000      -0.35120902       0.88884898      -0.77675928
H        0.00000000       0.00000000       0.00000000       1.02356104       0.48353138      -1.04199063
H        0.00000000       0.00000000       0.00000000      -0.03447176      -0.05512820      -0.14571643
H        0.00000000       0.00000000       0.00000000       0.05148643       0.31937967       0.86786178
H        0.00000000       0.00000000       0.00000000       0.13058151       0.15644567       0.13881531
H        0.00000000       0.00000000       0.00000000       0.89988183      -0.39314549      -0.26228248
O        0.00000000       0.00000000       0.00000000       0.08022390       0.89768353      -0.52493223
O        0.00000000       0.00000000       0.00000000      -0.83934312      -1.34205033       1.79771056
O        0.00000000       0.00000000       0.00000000      -0.00544999      -0.51632868      -0.77032090
O        0.00000000       0.00000000       0.00000000      -0.81481173       0.16215577       0.09630033
13
Lattice="529.1772105638412 0.0 0.0 0.0 529.1772105638412 0.0 0.0 0.0 529.1772105638412" Properties=species:S:1:pos:R:3:forces_component_raw:R:3 ipi_comment="Step:         360  Bead:       0 forces_component_raw{ase}  cell{ase}" pbc="T T T"
H        0.00000000       0.00000000       0.00000000       0.38132697      -0.34027540      -0.56225493
H        0.00000000       0.00000000       0.00000000       0.60102695       0.07844112      -0.88095346
H        0.00000000       0.00000000       0.00000000      -0.22656598       0.54885418       0.14996831
H        0.00000000       0.00000000       0.00000000      -0.86670420       0.91009572      -0.30385964
H        0.00000000       0.00000000       0.00000000       0.21680070       0.50093793      -1.05547211
H        0.00000000       0.00000000       0.00000000      -0.24447213      -0.05886989      -0.21037822
H        0.00000000       0.00000000       0.00000000      -0.05136379       0.59717009       1.07265077