13
Lattice="529.1772105638412 0.0 0.0 0.0 529.1772105638412 0.0 0.0 0.0 529.1772105638412" Properties=species:S:1:pos:R:3:forces_component_raw:R:3 ipi_comment="Step:           0  Bead:       0 forces_component_raw{ase}  cell{ase}" pbc="T T T"
H        0.00000000       0.00000000       0.00000000      -0.57095060       1.42738688       0.14291420
H        0.00000000       0.00000000       0.00000000       0.25977838       0.32974870      -0.12325667
H        0.00000000       0.00000000       0.00000000       1.86877525      -0.44424167       0.07621753
H        0.00000000       0.00000000       0.00000000       0.63428170      -0.33542933       0.35910747
H        0.00000000       0.00000000       0.00000000       0.64548918      -0.19364421       0.19970089
H        0.00000000       0.00000000       0.00000000      -0.03976399       0.23199561      -0.73885962
H        0.00000000       0.00000000       0.00000000       0.12384984      -0.68672835      -0.30506308
H        0.00000000       0.00000000       0.00000000       0.02306370       0.06010683      -0.16071936
H        0.00000000       0.00000000       0.00000000      -0.47767721      -0.19225500      -0.14231432
O        0.00000000       0.00000000       0.00000000      -1.55651970      -1.36239040       0.13181420
O        0.00000000       0.00000000       0.00000000      -1.10471350       0.19926132      -0.36090654
O        0.00000000       0.00000000       0.00000000      -0.52425795       0.49172105       0.98495427
O        0.00000000       0.00000000       0.00000000       0.71864492       0.47446857      -0.06358899
13
Lattice="529.1772105638412 0.0 0.0 0.0 529.1772105638412 0.0 0.0 0.0 529.1772105638412" Properties=species:S:1:pos:R:3:forces_component_raw:R:3 ipi_comment="Step:          20  Bead:       0 forces_component_raw{ase}  cell{ase}" pbc="T T T"
H        0.00000000       0.00000000       0.00000000       0.20189131      -3.07919360      -0.41412981
H        0.00000000       0.00000000       0.00000000      -0.68368943      -0.45908298       0.58129641
H        0.00000000       0.00000000       0.00000000      -3.66108371      -0.35361309       0.19858184
H        0.00000000       0.00000000       0.00000000      -0.27255343      -1.23364413      -0.13300501
H        0.00000000       0.00000000       0.00000000      -1.06112730      -0.10819091      -0.46343222
H        0.00000000       0.00000000       0.00000000      -0.15322414       0.36971447      -0.70483202
H        0.00000000       0.00000000       0.00000000       0.10717461      -0.13906119      -0.70389040
H        0.00000000       0.00000000       0.00000000       0.70619930      -0.00649642       0.91351815
H        0.00000000       0.00000000       0.00000000      -0.09484865       0.10480758      -0.44356096
O        0.00000000       0.00000000       0.00000000      -0.45253422      -0.49401840       1.44368113
O        0.00000000       0.00000000       0.00000000       4.89157674       1.34042302       0.29526586
O        0.00000000       0.00000000       0.00000000      -0.17323613       3.03580963       1.54005370
O        0.00000000       0.00000000       0.00000000       0.64545505       1.02254603      -2.10954667
13
Lattice="529.1772105638412 0.0 0.0 0.0 529.1772105638412 0.0 0.0 0.0 529.1772105638412" Properties=species:S:1:pos:R:3:forces_component_raw:R:3 ipi_comment="Step:          40  Bead:       0 forces_component_raw{ase}  cell{ase}" pbc="T T T"
H        0.00000000       0.00000000       0.00000000      -0.36260749       0.90365151       0.01934229
H        0.00000000       0.00000000       0.00000000      -0.11972951       0.01617189      -0.68898766
H        0.00000000       0.00000000       0.00000000       1.40953312      -0.29433909      -0.18556361
H        0.00000000       0.00000000       0.00000000       0.69236956      -0.12374452       0.12237615
H        0.00000000       0.00000000       0.00000000      -0.57358073      -1.42316166      -0.38054121
H        0.00000000       0.00000000       0.00000000       0.13501932      -0.58852967       0.04123614
H        0.00000000       0.00000000       0.00000000       0.29921795      -0.81112677      -0.23721172
H        0.00000000       0.00000000       0.00000000       0.43844682      -0.33432113       1.01059509
H        0.00000000       0.00000000       0.00000000      -0.15381065      -0.04817780      -0.03124070
O        0.00000000       0.00000000       0.00000000      -1.21338436      -0.97166284       1.31849634
O        0.00000000       0.00000000       0.00000000      -0.22283912       1.34343858       0.36094815
O        0.00000000       0.00000000       0.00000000      -0.60793147       1.27467145       0.24475332
O        0.00000000       0.00000000       0.00000000       0.27929656       1.05713005      -1.59420256
13
Lattice="529.1772105638412 0.0 0.0 0.0 529.1772105638412 0.0 0.0 0.0 529.1772105638412" Properties=species:S:1:pos:R:3:forces_component_raw:R:3 ipi_comment="Step:          60  Bead:       0 forces_component_raw{ase}  cell{ase}" pbc="T T T"
H        0.00000000       0.00000000       0.00000000      -0.22190063       0.53481720      -0.19609352
H        0.00000000       0.00000000       0.00000000       0.06900098      -0.66779269       0.08041656
H        0.00000000       0.00000000       0.00000000      -0.26952987       0.09478387      -0.43685228
H        0.00000000       0.00000000       0.00000000      -0.35510507      -0.12849748      -0.06550443
H        0.00000000       0.00000000       0.00000000      -1.39265947      -0.14264399      -0.04654848
H        0.00000000       0.00000000       0.00000000      -0.09287343      -0.19006210       0.85859635
H        0.00000000       0.00000000       0.00000000      -0.10184658       0.14027696      -0.29600030
H        0.00000000       0.00000000       0.00000000       0.43605066      -0.04339836       0.34741424
H        0.00000000       0.00000000       0.00000000      -0.15839760       0.06096056      -0.15954328
O        0.00000000       0.00000000       0.00000000       1.35859947       1.31972748      -0.27227696
O        0.00000000       0.00000000       0.00000000       1.62234083      -0.16391192       0.15609427
O        0.00000000       0.00000000       0.00000000       0.13500823      -0.30224855      -0.62527820
O        0.00000000       0.00000000       0.00000000      -1.02868753      -0.51201099       0.65557604
13
Lattice="529.1772105638412 0.0 0.0 0.0 529.1772105638412 0.0 0.0 0.0 529.1772105638412" Properties=species:S:1:pos:R:3:forces_component_raw:R:3 ipi_comment="Step:          80  Bead:       0 forces_component_raw{ase}  cell{ase}" pbc="T T T"
H        0.00000000       0.00000000       0.00000000      -0.02874372      -0.25760740      -0.17755316
H        0.00000000       0.00000000       0.00000000      -0.32629009       1.10207291      -0.37031792
H        0.00000000       0.00000000       0.00000000       2.03740771       0.14672973      -0.13632175
H        0.00000000       0.00000000       0.00000000       0.22575898       0.85961671       0.21846596
H        0.00000000       0.00000000       0.00000000      -0.27643370      -0.73278696      -0.10341597
H        0.00000000       0.00000000       0.00000000       0.70014645      -0.92696204       0.47528271
H        0.00000000       0.00000000       0.00000000       0.18455584      -0.32003883       0.55450879
H        0.00000000       0.00000000       0.00000000      -0.79396265      -0.03543524      -0.37366833
H        0.00000000       0.00000000       0.00000000       0.45327390      -0.21428693       0.25999464
O        0.00000000       0.00000000       0.00000000      -2.05346377       0.39989362      -0.42238105
O        0.00000000       0.00000000       0.00000000       0.98141793      -0.31604135      -0.19046294
O        0.00000000       0.00000000       0.00000000      -0.96485823       0.97989381      -0.87989316
O        0.00000000       0.00000000       0.00000000      -0.13880866      -0.68504803       1.14576217
13
Lattice="529.1772105638412 0.0 0.0 0.0 529.1772105638412 0.0 0.0 0.0 529.1772105638412" Properties=species:S:1:pos:R:3:forces_component_raw:R:3 ipi_comment="Step:         100  Bead:       0 forces_component_raw{ase}  cell{ase}" pbc="T T T"
H        0.00000000       0.00000000       0.00000000       0.45305645       0.59463576      -0.00410504
H        0.00000000       0.00000000       0.00000000       0.33592254      -0.82230764       0.00668965
H        0.00000000       0.00000000       0.00000000       0.31929938       0.20102412       0.12951224
H        0.00000000       0.00000000       0.00000000      -1.18912473       0.93657496       0.56778441
H        0.00000000       0.00000000       0.00000000      -0.64730492       0.17053007       0.10873663
H        0.00000000       0.00000000       0.00000000       0.08407497       0.10416118       1.70698596
H        0.00000000       0.00000000       0.00000000      -0.30566838       0.28390365      -0.43229411
H        0.00000000       0.00000000       0.00000000      -0.57515515       1.20558020      -0.90003566
H        0.00000000       0.00000000       0.00000000       0.17494823       0.60556509      -0.37003137
O        0.00000000       0.00000000       0.00000000      -0.37716466       1.36905084      -0.00132447
O        0.00000000       0.00000000       0.00000000       1.30181594      -1.37100759      -0.65982409
O        0.00000000       0.00000000       0.00000000       0.04100622      -1.61795591      -1.49400219
O        0.00000000       0.00000000       0.00000000       0.38429410      -1.65975471       1.34190803
13
Lattice="529.1772105638412 0.0 0.0 0.0 529.1772105638412 0.0 0.0 0.0 529.1772105638412" Properties=species:S:1:pos:R:3:forces_component_raw:R:3 ipi_comment="Step:         120  Bead:       0 forces_component_raw{ase}  cell{ase}" pbc="T T T"
H        0.00000000       0.00000000       0.00000000      -0.53546682      -0.79731243      -0.49985256
H        0.00000000       0.00000000       0.00000000      -0.13518414       0.29865968      -1.41117812
H        0.00000000       0.00000000       0.00000000      -0.10173088      -0.53162428      -0.72838611
H        0.00000000       0.00000000       0.00000000      -1.18948561       1.54282813       0.53104753
H        0.00000000       0.00000000       0.00000000       0.51518119      -0.02200947      -0.17615746
H        0.00000000       0.00000000       0.00000000       1.27470918      -1.19859715       1.04651252
H        0.00000000       0.00000000       0.00000000       0.27360464      -0.42468814       0.61836007
H        0.00000000       0.00000000       0.00000000      -1.26141428       0.73328304      -0.58650660
H        0.00000000       0.00000000       0.00000000       0.63496834       0.09317720       0.22407483
O        0.00000000       0.00000000       0.00000000      -0.33240462      -0.36916682       2.76479714
O        0.00000000       0.00000000       0.00000000       1.16628784      -1.17303821      -0.13463105
O        0.00000000       0.00000000       0.00000000      -1.38256758       2.45034285      -1.57338097
O        0.00000000       0.00000000       0.00000000       1.07350274      -0.60185440      -0.07469922
13
Lattice="529.1772105638412 0.0 0.0 0.0 529.1772105638412 0.0 0.0 0.0 529.1772105638412" Properties=species:S:1:pos:R:3:forces_component_raw:R:3 ipi_comment="Step:         140  Bead:       0 forces_component_raw{ase}  cell{ase}" pbc="T T T"
H        0.00000000       0.00000000       0.00000000       0.25525337       0.60423958      -0.47285717
H        0.00000000       0.00000000       0.00000000      -0.00435097      -0.33584313       0.76171221
H        0.00000000       0.00000000       0.00000000       0.76953684       0.66691298       0.48049402
H        0.00000000       0.00000000       0.00000000      -1.45879189       1.30727941       1.07288254
H        0.00000000       0.00000000       0.00000000       0.10688067       1.21635768      -0.31738378
H        0.00000000       0.00000000       0.00000000       0.39566031      -0.48152530       1.54192986
H        0.00000000       0.00000000       0.00000000      -0.55137291       0.64466578       0.16741327
H        0.00000000       0.00000000       0.00000000       0.18029174       0.92499672      -0.27391585
H        0.00000000       0.00000000       0.00000000       0.33144814       0.70840200       0.11914420
O        0.00000000       0.00000000       0.00000000       0.32637761      -0.30768907      -0.32337151
O        0.00000000       0.00000000       0.00000000       0.39178204      -3.00429901      -1.10745242
O        0.00000000       0.00000000       0.00000000      -0.12666678      -0.30849348      -1.41579199
O        0.00000000       0.00000000       0.00000000      -0.61604817      -1.63500415      -0.23280338
13
Lattice="529.1772105638412 0.0 0.0 0.0 529.1772105638412 0.0 0.0 0.0 529.1772105638412" Properties=species:S:1:pos:R:3:forces_component_raw:R:3 ipi_comment="Step:         160  Bead:       0 forces_component_raw{ase}  cell{ase}" pbc="T T T"
H        0.00000000       0.00000000       0.00000000      -0.24512131       0.30703377      -0.10070531
H        0.00000000       0.00000000       0.00000000      -0.44203607       0.16205975      -0.51513031
H        0.00000000       0.00000000       0.00000000       0.58356527      -0.81206190      -0.20040303
H        0.00000000       0.00000000       0.00000000      -0.56863771       1.94683848       0.20800297
H        0.00000000       0.00000000       0.00000000       1.13385090       0.43293881      -0.61824922
H        0.00000000       0.00000000       0.00000000       1.12153737      -1.04179003       0.77821419
H        0.00000000       0.00000000       0.00000000       0.01388722      -0.12226570       0.84678163
H        0.00000000       0.00000000       0.00000000      -0.03202303      -0.03275245       0.05653309
H        0.00000000       0.00000000       0.00000000      -0.04676020      -0.05939286       0.07738310
O        0.00000000       0.00000000       0.00000000      -0.01040863       0.22668149       1.46374254
O        0.00000000       0.00000000       0.00000000      -1.00018688      -1.81682904       0.32146425
O        0.00000000       0.00000000       0.00000000      -0.92718868       0.60258244      -1.72768796
O        0.00000000       0.00000000       0.00000000       0.41952174       0.20695724      -0.58994596
13
Lattice="529.1772105638412 0.0 0.0 0.0 529.1772105638412 0.0 0.0 0.0 529.1772105638412" Properties=species:S:1:pos:R:3:forces_component_raw:R:3 ipi_comment="Step:         180  Bead:       0 forces_component_raw{ase}  cell{ase}" pbc="T T T"
H        0.00000000       0.00000000       0.00000000       0.02315943      -0.31355327      -0.61090096
H        0.00000000       0.00000000       0.00000000       0.04787264      -0.43207601      -0.82195364
H        0.00000000       0.00000000       0.00000000       0.44222803       0.52947252      -0.67196774
H        0.00000000       0.00000000       0.00000000      -0.62013352       0.65777959       0.50763704
H        0.00000000       0.00000000       0.00000000      -0.01894088       1.20454655      -0.29218709
H        0.00000000       0.00000000       0.00000000      -0.15881531       0.12735800       0.02594695
H        0.00000000       0.00000000       0.00000000      -0.22784300       0.30800572       0.16801877
H        0.00000000       0.00000000       0.00000000       0.68035951      -0.16057472       0.26111938
H        0.00000000       0.00000000       0.00000000      -0.39579592       0.30388898      -0.38353850
O        0.00000000       0.00000000       0.00000000      -0.63973030       1.40052129       1.86530284
O        0.00000000       0.00000000       0.00000000       0.16213524      -2.40459863       0.15766865
O        0.00000000       0.00000000       0.00000000       0.71083432      -1.22252553      -0.15562548
O        0.00000000       0.00000000       0.00000000      -0.00533026       0.00175551      -0.04952022
13
Lattice="529.1772105638412 0.0 0.0 0.0 529.1772105638412 0.0 0.0 0.0 529.1772105638412" Properties=species:S:1:pos:R:3:forces_component_raw:R:3 ipi_comment="Step:         200  Bead:       0 forces_component_raw{ase}  cell{ase}" pbc="T T T"
H        0.00000000       0.00000000       0.00000000       0.62013306      -1.52214281       0.46261105
H        0.00000000       0.00000000       0.00000000       0.77800403       0.53574939      -0.36674530
H        0.00000000       0.00000000       0.00000000      -0.32292522      -0.80738575       0.39427796
H        0.00000000       0.00000000       0.00000000       0.24074175       0.06349232      -0.30500725
H        0.00000000       0.00000000       0.00000000       0.41028289      -0.38193898      -0.13784683
H        0.00000000       0.00000000       0.00000000      -0.49922870       0.11744136      -1.24262079
H        0.00000000       0.00000000       0.00000000       0.33354534      -0.09670329       0.75403522
H        0.00000000       0.00000000       0.00000000       0.56254368      -0.51668761       0.92345723
H        0.00000000       0.00000000       0.00000000      -0.88699197      -0.07791496       0.25699798
O        0.00000000       0.00000000       0.00000000      -1.04461935       2.10943572      -0.42243313
O        0.00000000       0.00000000       0.00000000      -0.27097458       0.70118878       0.22680152
O        0.00000000       0.00000000       0.00000000       0.21459225      -0.28124755       0.28259473
O        0.00000000       0.00000000       0.00000000      -0.13510316       0.15671339      -0.82612240
13
Lattice="529.1772105638412 0.0 0.0 0.0 529.1772105638412 0.0 0.0 0.0 529.1772105638412" Properties=species:S:1:pos:R:3:forces_component_raw:R:3 ipi_comment="Step:         220  Bead:       0 forces_component_raw{ase}  cell{ase}" pbc="T T T"
H        0.00000000       0.00000000       0.00000000       0.83435478      -1.15819190      -0.81606898
H        0.00000000       0.00000000       0.00000000      -0.17321931       0.05671345      -0.60241837
H        0.00000000       0.00000000       0.00000000      -0.60020723       0.21447557      -0.40875992
H        0.00000000       0.00000000       0.00000000      -0.09382799      -0.59444350       0.11848524
H        0.00000000       0.00000000       0.00000000      -1.06367165      -0.35292310       0.60584974
H        0.00000000       0.00000000       0.00000000      -1.00156423       0.52116624      -1.25591699
H        0.00000000       0.00000000       0.00000000       0.06488173       0.33112171       0.51321691
H        0.00000000       0.00000000       0.00000000       1.20772785      -0.55204182       1.00432192
H        0.00000000       0.00000000       0.00000000      -1.89184894       0.66775776      -0.13953534
O        0.00000000       0.00000000       0.00000000       0.11186847       1.71923661       0.67762235
O        0.00000000       0.00000000       0.00000000       1.18009578       0.73192130      -0.53315226
O        0.00000000       0.00000000       0.00000000       0.88015178      -0.83620047       0.93343857
O        0.00000000       0.00000000       0.00000000       0.54525896      -0.74859186      -0.09708286
13
Lattice="529.1772105638412 0.0 0.0 0.0 529.1772105638412 0.0 0.0 0.0 529.1772105638412" Properties=species:S:1:pos:R:3:forces_component_raw:R:3 ipi_comment="Step:         240  Bead:       0 forces_component_raw{ase}  cell{ase}" pbc="T T T"
H        0.00000000       0.00000000       0.00000000      -0.24594897      -0.66534378      -0.17011019
H        0.00000000       0.00000000       0.00000000      -0.00119164      -0.41588763      -0.47540406
H        0.00000000       0.00000000       0.00000000       0.05921267      -0.28522868      -0.55792744
H        0.00000000       0.00000000       0.00000000       0.45898947      -0.90129672      -0.02603186
H        0.00000000       0.00000000       0.00000000      -0.38149088      -0.63886925       0.81999071
H        0.00000000       0.00000000       0.00000000      -0.77255806       0.59507744      -1.32988877
H        0.00000000       0.00000000       0.00000000       0.12021683       0.76846335       0.48090952
H        0.00000000       0.00000000       0.00000000       0.49713651      -0.19189493       0.92239531
H        0.00000000       0.00000000       0.00000000      -1.17689641       0.44768727       0.50851498
O        0.00000000       0.00000000       0.00000000       0.31955399      -0.03895396       1.11933080
O        0.00000000       0.00000000       0.00000000       0.15166763       1.66743252      -0.78488542
O        0.00000000       0.00000000       0.00000000       0.39731214      -0.31671838       0.94746089
O        0.00000000       0.00000000       0.00000000       0.57399672      -0.02446725      -1.45435444
13
Lattice="529.1772105638412 0.0 0.0 0.0 529.1772105638412 0.0 0.0 0.0 529.1772105638412" Properties=species:S:1:pos:R:3:forces_component_raw:R:3 ipi_comment="Step:         260  Bead:       0 forces_component_raw{ase}  cell{ase}" pbc="T T T"
H        0.00000000       0.00000000       0.00000000      -0.13797597       0.56135395      -0.07674837
H        0.00000000       0.00000000       0.00000000       0.07575622       0.31786028      -0.37908083
H        0.00000000       0.00000000       0.00000000      -0.07287587      -0.31374149      -0.09559974
H        0.00000000       0.00000000       0.00000000      -0.10629515      -0.21263480       0.03237117
H        0.00000000       0.00000000       0.00000000      -0.38718378      -0.59673062       0.89560515
H        0.00000000       0.00000000       0.00000000      -0.19677894      -0.18091742      -0.41854495
H        0.00000000       0.00000000       0.00000000       0.49391660       0.19266110       0.52322166
H        0.00000000       0.00000000       0.00000000       0.20452723      -0.21202743      -0.02160914
H        0.00000000       0.00000000       0.00000000      -0.53128180       0.24899691      -0.03715197
O        0.00000000       0.00000000       0.00000000      -0.18862757      -0.86467918       1.29315406
O        0.00000000       0.00000000       0.00000000       0.33731005       1.10829610      -0.99620245
O        0.00000000       0.00000000       0.00000000      -0.22798974      -0.35216334      -0.19269306
O        0.00000000       0.00000000       0.00000000       0.73749872       0.30372594      -0.52672152
13
Lattice="529.1772105638412 0.0 0.0 0.0 529.1772105638412 0.0 0.0 0.0 529.1772105638412" Properties=species:S:1:pos:R:3:forces_component_raw:R:3 ipi_comment="Step:         280  Bead:       0 forces_component_raw{ase}  cell{ase}" pbc="T T T"
H        0.00000000       0.00000000       0.00000000      -0.45307276       0.35028603      -0.71087946
H        0.00000000       0.00000000       0.00000000      -0.20245378      -0.82221030       0.38428768
H        0.00000000       0.00000000       0.00000000       0.03166078       0.28353640      -0.53639326
H        0.00000000       0.00000000       0.00000000      -0.21786567       1.04586023      -0.39680453
H        0.00000000       0.00000000       0.00000000      -0.64851128      -0.64179943       0.86709809
H        0.00000000       0.00000000       0.00000000       0.08899994       0.30122054      -0.19968795
H        0.00000000       0.00000000       0.00000000      -0.34847287       0.21930763      -0.34548013
H        0.00000000       0.00000000       0.00000000      -0.14487909      -0.15838508       0.14013127
H        0.00000000       0.00000000       0.00000000      -0.43773870       0.12606345       0.33076231
O        0.00000000       0.00000000       0.00000000      -0.10030688       0.38325406       0.31963697
O        0.00000000       0.00000000       0.00000000       0.97674216      -0.64886310      -0.15820897
O        0.00000000       0.00000000       0.00000000       0.74436590      -0.60042126       0.81350806
O        0.00000000       0.00000000       0.00000000       0.71153224       0.16215081      -0.50797009
13
Lattice="529.1772105638412 0.0 0.0 0.0 529.1772105638412 0.0 0.0 0.0 529.1772105638412" Properties=species:S:1:pos:R:3:forces_component_raw:R:3 ipi_comment="Step:         300  Bead:       0 forces_component_raw{ase}  cell{ase}" pbc="T T T"
H        0.00000000       0.00000000       0.00000000      -0.43287073       0.60753991       0.40904787
H        0.00000000       0.00000000       0.00000000       0.60942197       0.12296983      -0.60041480
H        0.00000000       0.00000000       0.00000000       0.40567755      -0.51530272       0.19324204
H        0.00000000       0.00000000       0.00000000      -0.82503367       1.47652028      -0.21078371
H        0.00000000       0.00000000       0.00000000      -0.59463589      -0.37437558       0.81228964
H        0.00000000       0.00000000       0.00000000      -0.56987772      -0.13501212      -0.35300946
H        0.00000000       0.00000000       0.00000000       0.19326040      -0.01334972       0.47042783
H        0.00000000       0.00000000       0.00000000      -0.25427875       0.44099876      -0.60950169
H        0.00000000       0.00000000       0.00000000       0.02973375       0.04083372      -0.26712370
O        0.00000000       0.00000000       0.00000000      -0.58845022      -0.34633374       0.80937006
O        0.00000000       0.00000000       0.00000000       0.72875074      -0.82745417      -0.59064028
O        0.00000000       0.00000000       0.00000000       0.81644073      -0.46663778      -0.50463074
O        0.00000000       0.00000000       0.00000000       0.48186186      -0.01039667       0.44172694
13
Lattice="529.1772105638412 0.0 0.0 0.0 529.1772105638412 0.0 0.0 0.0 529.1772105638412" Properties=species:S:1:pos:R:3:forces_component_raw:R:3 ipi_comment="Step:         320  Bead:       0 forces_component_raw{ase}  cell{ase}" pbc="T T T"
H        0.00000000       0.00000000       0.00000000       0.29402227      -0.49038721      -0.49684907
H        0.00000000       0.00000000       0.00000000      -0.16024747       0.70078165      -0.94894963
H        0.00000000       0.00000000       0.00000000      -0.20958624       0.57330550      -0.49081380
H        0.00000000       0.00000000       0.00000000      -0.47903041       1.47329539      -0.16694237
H        0.00000000       0.00000000       0.00000000      -0.40762116       0.15842913      -0.02138752
H        0.00000000       0.00000000       0.00000000      -0.04787746       0.01704948      -0.31192642
H        0.00000000       0.00000000       0.00000000      -0.20900123       0.13944667      -0.16242246
H        0.00000000       0.00000000       0.00000000      -0.19995199       1.06676348      -0.30992996
H        0.00000000       0.00000000       0.00000000       0.82932048      -0.29781539      -0.81556398
O        0.00000000       0.00000000       0.00000000       0.54738303      -0.58600730       1.09655444
O        0.00000000       0.00000000       0.00000000       0.07377418      -1.87183125       0.63883465
O        0.00000000       0.00000000       0.00000000       0.44806692      -0.08470420       0.80207341
O        0.00000000       0.00000000       0.00000000      -0.47925091      -0.79832594       1.18732271
13
Lattice="529.1772105638412 0.0 0.0 0.0 529.1772105638412 0.0 0.0 0.0 529.1772105638412" Properties=species:S:1:pos:R:3:forces_component_raw:R:3 ipi_comment="Step:         340  Bead:       0 forces_component_raw{ase}  cell{ase}" pbc="T T T"
H        0.00000000       0.00000000       0.00000000       0.14195680       0.32164060      -0.30728672
H        0.00000000       0.00000000       0.00000000       0.16126296       0.32436327      -0.28107169
H        0.00000000       0.00000000       0.00000000      -0.05753066      -0.36106176       0.27638409
H        0.00000000       0.00000000       0.00000000      -0.91766748       0.92083442      -0.25338545
H        0.00000000       0.00000000       0.00000000       0.39161193       0.05595328      -0.41286108
H        0.00000000       0.00000000       0.00000000       0.41283904      -0.37858271       0.28942847
H        0.00000000       0.00000000       0.00000000       0.33189919       0.12011768       0.19396656
H        0.00000000       0.00000000       0.00000000       0.16436373       0.47618331       0.05158819
H        0.00000000       0.00000000       0.00000000       1.29386152      -0.22405947      -1.32188907
O        0.00000000       0.00000000       0.00000000      -0.01226922       0.34815779       0.16504430
O        0.00000000       0.00000000       0.00000000      -0.19695531      -0.51788604       0.56211515
O        0.00000000       0.00000000       0.00000000      -0.25729299      -0.59261463      -0.30702825
O        0.00000000       0.00000000       0.00000000      -1.45607952      -0.49304574       1.34499551
13
Lattice="529.1772105638412 0.0 0.0 0.0 529.1772105638412 0.0 0.0 0.0 529.1772105638412" Properties=species:S:1:pos:R:3:forces_component_raw:R:3 ipi_comment="Step:         360  Bead:       0 forces_component_raw{ase}  cell{ase}" pbc="T T T"
H        0.00000000       0.00000000       0.00000000      -0.43351475      -0.38224291       0.39380192
H        0.00000000       0.00000000       0.00000000       0.66443297       0.04561568      -0.46683867
H        0.00000000       0.00000000       0.00000000       0.17260575       0.63069000      -0.54275748
H        0.00000000       0.00000000       0.00000000      -0.45397251       0.61854508      -0.09370129
H        0.00000000       0.00000000       0.00000000      -0.32081421       0.04645949      -0.01836902
H        0.00000000       0.00000000       0.00000000       0.53990911      -0.11995610       0.26952865
H        0.00000000       0.00000000       0.00000000       0.25991650       0.68862171       0.17706999