13
Lattice="529.1772105638412 0.0 0.0 0.0 529.1772105638412 0.0 0.0 0.0 529.1772105638412" Properties=species:S:1:pos:R:3:forces_component_raw:R:3 ipi_comment="Step:           0  Bead:       0 forces_component_raw{ase}  cell{ase}" pbc="T T T"
H        0.00000000       0.00000000       0.00000000      -0.58073268       2.17202438       0.30378052
H        0.00000000       0.00000000       0.00000000       0.15764701       0.23587375       0.08292359
H        0.00000000       0.00000000       0.00000000       2.64436288      -0.13734125       0.20422664
H        0.00000000       0.00000000       0.00000000       0.68050126      -0.35229782       0.33467597
H        0.00000000       0.00000000       0.00000000       0.82494900      -0.02269330       0.24350950
H        0.00000000       0.00000000       0.00000000      -0.05770647       0.52338836      -0.82175126
H        0.00000000       0.00000000       0.00000000       0.13671958      -0.74065799      -0.37359536
H        0.00000000       0.00000000       0.00000000       0.06879975       0.05756649      -0.09319698
H        0.00000000       0.00000000       0.00000000      -0.54858587      -0.19787288      -0.22932404
O        0.00000000       0.00000000       0.00000000      -2.46617462      -2.39292811      -0.29236058
O        0.00000000       0.00000000       0.00000000      -1.12349220       0.05655995      -0.36995380
O        0.00000000       0.00000000       0.00000000      -0.43528656       0.36841214       1.00689927
O        0.00000000       0.00000000       0.00000000       0.69899894       0.42996626       0.00416653
13
Lattice="529.1772105638412 0.0 0.0 0.0 529.1772105638412 0.0 0.0 0.0 529.1772105638412" Properties=species:S:1:pos:R:3:forces_component_raw:R:3 ipi_comment="Step:          20  Bead:       0 forces_component_raw{ase}  cell{ase}" pbc="T T T"
H        0.00000000       0.00000000       0.00000000       0.24429571      -1.65938755      -0.43545825
H        0.00000000       0.00000000       0.00000000       0.10074286       0.16286612      -0.30466177
H        0.00000000       0.00000000       0.00000000      -2.94997534      -0.20583269       0.25565616
H        0.00000000       0.00000000       0.00000000      -0.16295448      -1.17496333      -0.10313290
H        0.00000000       0.00000000       0.00000000      -0.79865206      -0.09352445      -0.38498374
H        0.00000000       0.00000000       0.00000000      -0.20185235       0.67148039      -0.99796422
H        0.00000000       0.00000000       0.00000000       0.06629129       0.01060354      -0.61611029
H        0.00000000       0.00000000       0.00000000       0.38797056      -0.33942025       1.44124615
H        0.00000000       0.00000000       0.00000000      -0.25634227      -0.08183574      -0.07733335
O        0.00000000       0.00000000       0.00000000      -0.46727798      -0.74757395       0.51234748
O        0.00000000       0.00000000       0.00000000       4.33139331       1.13558901       0.24105190
O        0.00000000       0.00000000       0.00000000      -0.26462492       1.94506833       1.81374376
O        0.00000000       0.00000000       0.00000000      -0.02901434       0.37693057      -1.34440091
13
Lattice="529.1772105638412 0.0 0.0 0.0 529.1772105638412 0.0 0.0 0.0 529.1772105638412" Properties=species:S:1:pos:R:3:forces_component_raw:R:3 ipi_comment="Step:          40  Bead:       0 forces_component_raw{ase}  cell{ase}" pbc="T T T"
H        0.00000000       0.00000000       0.00000000      -0.20892003       1.69120020       0.26963646
H        0.00000000       0.00000000       0.00000000      -0.44963174      -0.43012745       0.24873737
H        0.00000000       0.00000000       0.00000000       2.20566650       0.20293122       0.19237518
H        0.00000000       0.00000000       0.00000000       0.72699148       0.04933947       0.14411926
H        0.00000000       0.00000000       0.00000000      -0.70301185      -1.69151509      -0.42943797
H        0.00000000       0.00000000       0.00000000       0.12807644      -0.54135640       0.09705679
H        0.00000000       0.00000000       0.00000000       0.34611730      -0.79736762      -0.32893541
H        0.00000000       0.00000000       0.00000000       0.43325186      -0.30549480       0.96762412
H        0.00000000       0.00000000       0.00000000      -0.02999222       0.02467456      -0.02597161
O        0.00000000       0.00000000       0.00000000      -1.90188555      -2.03318255      -0.10449929
O        0.00000000       0.00000000       0.00000000      -0.05556571       1.29881848       0.33841231
O        0.00000000       0.00000000       0.00000000      -0.68022830       1.51691453       0.23485606
O        0.00000000       0.00000000       0.00000000       0.18913182       1.01516545      -1.60397326
13
Lattice="529.1772105638412 0.0 0.0 0.0 529.1772105638412 0.0 0.0 0.0 529.1772105638412" Properties=species:S:1:pos:R:3:forces_component_raw:R:3 ipi_comment="Step:          60  Bead:       0 forces_component_raw{ase}  cell{ase}" pbc="T T T"
H        0.00000000       0.00000000       0.00000000      -0.04515995       0.50989968       0.06503163
H        0.00000000       0.00000000       0.00000000      -0.14018124      -0.93327511       0.93461961
H        0.00000000       0.00000000       0.00000000      -0.01125244       0.24902158      -0.25171496
H        0.00000000       0.00000000       0.00000000      -0.25514552      -0.08749309      -0.06100995
H        0.00000000       0.00000000       0.00000000      -1.41579312      -0.21639941      -0.06759064
H        0.00000000       0.00000000       0.00000000      -0.07871181      -0.18597166       0.99774143
H        0.00000000       0.00000000       0.00000000      -0.06900928       0.19681285      -0.36899043
H        0.00000000       0.00000000       0.00000000       0.40792837      -0.16356688       0.49939413
H        0.00000000       0.00000000       0.00000000      -0.19640297       0.00277312      -0.11487447
O        0.00000000       0.00000000       0.00000000       1.19825406       1.28215878      -1.29315540
O        0.00000000       0.00000000       0.00000000       1.41459125      -0.16625874       0.18440137
O        0.00000000       0.00000000       0.00000000       0.03681471      -0.31425540      -0.75724466
O        0.00000000       0.00000000       0.00000000      -0.84593206      -0.17344572       0.23339235
13
Lattice="529.1772105638412 0.0 0.0 0.0 529.1772105638412 0.0 0.0 0.0 529.1772105638412" Properties=species:S:1:pos:R:3:forces_component_raw:R:3 ipi_comment="Step:          80  Bead:       0 forces_component_raw{ase}  cell{ase}" pbc="T T T"
H        0.00000000       0.00000000       0.00000000       0.07605404       0.58844634      -0.24170592
H        0.00000000       0.00000000       0.00000000      -0.60776585       0.51629338       0.64629572
H        0.00000000       0.00000000       0.00000000       2.86101707       0.25006196       0.03018265
H        0.00000000       0.00000000       0.00000000       0.20081003       1.17247712       0.26552630
H        0.00000000       0.00000000       0.00000000      -0.14245248      -0.91105625      -0.15049574
H        0.00000000       0.00000000       0.00000000       0.77183174      -1.00702753       0.65621671
H        0.00000000       0.00000000       0.00000000       0.32749369      -0.39824485       0.41889746
H        0.00000000       0.00000000       0.00000000      -0.70580422      -0.13066627      -0.16947297
H        0.00000000       0.00000000       0.00000000       0.30412378      -0.23643103       0.24329508
O        0.00000000       0.00000000       0.00000000      -2.45993247       0.44991847      -1.14691537
O        0.00000000       0.00000000       0.00000000       0.35690266      -0.35662492      -0.19651593
O        0.00000000       0.00000000       0.00000000      -1.12781255       0.54716947      -0.89458650
O        0.00000000       0.00000000       0.00000000       0.14553454      -0.48431589       0.53927851
13
Lattice="529.1772105638412 0.0 0.0 0.0 529.1772105638412 0.0 0.0 0.0 529.1772105638412" Properties=species:S:1:pos:R:3:forces_component_raw:R:3 ipi_comment="Step:         100  Bead:       0 forces_component_raw{ase}  cell{ase}" pbc="T T T"
H        0.00000000       0.00000000       0.00000000       0.33838253       1.31963753       0.28840898
H        0.00000000       0.00000000       0.00000000      -0.16634507      -1.24604496       1.10079032
H        0.00000000       0.00000000       0.00000000       0.93717430       0.27948349       0.38929459
H        0.00000000       0.00000000       0.00000000      -1.05640512       0.94879726       0.59427510
H        0.00000000       0.00000000       0.00000000      -0.39642382       0.25896242       0.10688331
H        0.00000000       0.00000000       0.00000000       0.16398993       0.14139693       1.93244587
H        0.00000000       0.00000000       0.00000000      -0.31235919       0.48416388      -0.42834066
H        0.00000000       0.00000000       0.00000000      -0.57724756       1.14626859      -0.82269464
H        0.00000000       0.00000000       0.00000000       0.04875806       0.51414388      -0.32236641
O        0.00000000       0.00000000       0.00000000      -0.72101803       0.68012213      -1.42551264
O        0.00000000       0.00000000       0.00000000       1.33493915      -1.49816191      -0.75874577
O        0.00000000       0.00000000       0.00000000      -0.13559963      -1.54204767      -1.79698859
O        0.00000000       0.00000000       0.00000000       0.54215447      -1.48672157       1.14255053
13
Lattice="529.1772105638412 0.0 0.0 0.0 529.1772105638412 0.0 0.0 0.0 529.1772105638412" Properties=species:S:1:pos:R:3:forces_component_raw:R:3 ipi_comment="Step:         120  Bead:       0 forces_component_raw{ase}  cell{ase}" pbc="T T T"
H        0.00000000       0.00000000       0.00000000      -0.58213071      -0.27299889      -0.15969817
H        0.00000000       0.00000000       0.00000000      -0.69821706      -0.39463345       0.01282188
H        0.00000000       0.00000000       0.00000000       0.17601340      -0.47138879      -0.60289222
H        0.00000000       0.00000000       0.00000000      -1.08264003       1.66669337       0.54538270
H        0.00000000       0.00000000       0.00000000       0.93954304       0.30894314      -0.30846674
H        0.00000000       0.00000000       0.00000000       1.12888543      -0.90183290       0.92915818
H        0.00000000       0.00000000       0.00000000       0.03758955      -0.08318726       0.76835414
H        0.00000000       0.00000000       0.00000000      -1.43228848       0.69026794      -0.58377770
H        0.00000000       0.00000000       0.00000000       0.74252994       0.04344543       0.28180938
O        0.00000000       0.00000000       0.00000000       0.12360317      -0.50878879       1.07364446
O        0.00000000       0.00000000       0.00000000       0.64086888      -1.64084126      -0.07592107
O        0.00000000       0.00000000       0.00000000      -1.15195182       2.06054292      -1.71319041
O        0.00000000       0.00000000       0.00000000       1.15819469      -0.49622147      -0.16722441
13
Lattice="529.1772105638412 0.0 0.0 0.0 529.1772105638412 0.0 0.0 0.0 529.1772105638412" Properties=species:S:1:pos:R:3:forces_component_raw:R:3 ipi_comment="Step:         140  Bead:       0 forces_component_raw{ase}  cell{ase}" pbc="T T T"
H        0.00000000       0.00000000       0.00000000       0.06310068       1.16093861      -0.04625351
H        0.00000000       0.00000000       0.00000000      -0.15916897      -0.55561003       1.22269913
H        0.00000000       0.00000000       0.00000000       0.99060538       0.61072217       0.82812779
H        0.00000000       0.00000000       0.00000000      -1.40174633       1.32932790       1.12565571
H        0.00000000       0.00000000       0.00000000       0.35092293       1.39162050      -0.38791803
H        0.00000000       0.00000000       0.00000000       0.42794513      -0.40839461       1.48919137
H        0.00000000       0.00000000       0.00000000      -0.62785968       0.80338761       0.39733603
H        0.00000000       0.00000000       0.00000000       0.23047994       0.85171042      -0.00940927
H        0.00000000       0.00000000       0.00000000       0.40156660       0.86912039       0.14900724
O        0.00000000       0.00000000       0.00000000       0.33848833      -0.44851840      -1.43157131
O        0.00000000       0.00000000       0.00000000       0.21758942      -3.25351436      -1.18681021
O        0.00000000       0.00000000       0.00000000      -0.15645145      -0.54443793      -1.66862637
O        0.00000000       0.00000000       0.00000000      -0.67547199      -1.80635227      -0.48142860
13
Lattice="529.1772105638412 0.0 0.0 0.0 529.1772105638412 0.0 0.0 0.0 529.1772105638412" Properties=species:S:1:pos:R:3:forces_component_raw:R:3 ipi_comment="Step:         160  Bead:       0 forces_component_raw{ase}  cell{ase}" pbc="T T T"
H        0.00000000       0.00000000       0.00000000      -0.37360850       0.63319000       0.25064526
H        0.00000000       0.00000000       0.00000000      -0.72409506      -0.16975424       0.55857012
H        0.00000000       0.00000000       0.00000000       0.81040287      -0.80069496       0.02506134
H        0.00000000       0.00000000       0.00000000      -0.48080502       1.88392342       0.21129080
H        0.00000000       0.00000000       0.00000000       1.23592010       0.53804064      -0.64089665
H        0.00000000       0.00000000       0.00000000       1.06580722      -0.88110897       0.77169333
H        0.00000000       0.00000000       0.00000000      -0.11301978       0.11434980       1.00927708
H        0.00000000       0.00000000       0.00000000      -0.20027543       0.04421910       0.01487227
H        0.00000000       0.00000000       0.00000000       0.06351437      -0.10367389       0.17930017
O        0.00000000       0.00000000       0.00000000       0.31878124       0.09864982      -0.02032031
O        0.00000000       0.00000000       0.00000000      -1.22824325      -1.92262210       0.29299745
O        0.00000000       0.00000000       0.00000000      -0.88570650       0.38991029      -1.94777699
O        0.00000000       0.00000000       0.00000000       0.51132774       0.17557110      -0.70471389
13
Lattice="529.1772105638412 0.0 0.0 0.0 529.1772105638412 0.0 0.0 0.0 529.1772105638412" Properties=species:S:1:pos:R:3:forces_component_raw:R:3 ipi_comment="Step:         180  Bead:       0 forces_component_raw{ase}  cell{ase}" pbc="T T T"
H        0.00000000       0.00000000       0.00000000      -0.40838787       0.80708052      -0.23680501
H        0.00000000       0.00000000       0.00000000      -0.45418102      -0.76167761       0.39542777
H        0.00000000       0.00000000       0.00000000       0.14321256       0.60991633      -0.47146682
H        0.00000000       0.00000000       0.00000000      -0.59657156       0.62690190       0.53884582
H        0.00000000       0.00000000       0.00000000       0.11753208       1.26652000      -0.28526977
H        0.00000000       0.00000000       0.00000000      -0.12623698       0.13788708       0.20680938
H        0.00000000       0.00000000       0.00000000      -0.30988965       0.43833097       0.09463517
H        0.00000000       0.00000000       0.00000000       0.59651008      -0.15659681       0.27493977
H        0.00000000       0.00000000       0.00000000      -0.35405906       0.28868915      -0.35236264
O        0.00000000       0.00000000       0.00000000      -0.16516778       0.49438027       0.30920112
O        0.00000000       0.00000000       0.00000000       0.66186308      -2.48072733       0.04048372
O        0.00000000       0.00000000       0.00000000       0.76298348      -1.31139559      -0.30807531
O        0.00000000       0.00000000       0.00000000       0.13239264       0.04069112      -0.20636319
13
Lattice="529.1772105638412 0.0 0.0 0.0 529.1772105638412 0.0 0.0 0.0 529.1772105638412" Properties=species:S:1:pos:R:3:forces_component_raw:R:3 ipi_comment="Step:         200  Bead:       0 forces_component_raw{ase}  cell{ase}" pbc="T T T"
H        0.00000000       0.00000000       0.00000000       0.00917798      -0.06334053       0.53291332
H        0.00000000       0.00000000       0.00000000      -0.08638010       0.23528005       0.76136240
H        0.00000000       0.00000000       0.00000000       0.46471990      -0.64591592       0.45168556
H        0.00000000       0.00000000       0.00000000       0.38043448      -0.07625832      -0.30085270
H        0.00000000       0.00000000       0.00000000       0.49588725      -0.31631452      -0.14415157
H        0.00000000       0.00000000       0.00000000      -0.53043181       0.19293406      -1.25168413
H        0.00000000       0.00000000       0.00000000       0.30248546      -0.00556938       0.77638987
H        0.00000000       0.00000000       0.00000000       0.58338364      -0.64664400       1.17805994
H        0.00000000       0.00000000       0.00000000      -1.13990285      -0.15962475       0.42065684
O        0.00000000       0.00000000       0.00000000      -0.11189210       0.93288582      -1.46506745
O        0.00000000       0.00000000       0.00000000      -0.77564602       0.79800951       0.10606434
O        0.00000000       0.00000000       0.00000000       0.30136530      -0.56072400       0.26305656
O        0.00000000       0.00000000       0.00000000       0.10679886       0.31528198      -1.32843299
13
Lattice="529.1772105638412 0.0 0.0 0.0 529.1772105638412 0.0 0.0 0.0 529.1772105638412" Properties=species:S:1:pos:R:3:forces_component_raw:R:3 ipi_comment="Step:         220  Bead:       0 forces_component_raw{ase}  cell{ase}" pbc="T T T"
H        0.00000000       0.00000000       0.00000000       0.34284250       0.25398959      -0.52925214
H        0.00000000       0.00000000       0.00000000      -0.34091197       0.16552661      -0.31859790
H        0.00000000       0.00000000       0.00000000       0.36977878       0.40909538      -0.25978005
H        0.00000000       0.00000000       0.00000000       0.12793007      -0.70302991       0.10481850
H        0.00000000       0.00000000       0.00000000      -0.88787921      -0.28935984       0.55410622
H        0.00000000       0.00000000       0.00000000      -1.00804603       0.57646009      -1.18891235
H        0.00000000       0.00000000       0.00000000       0.00626680       0.31646777       0.34995170
H        0.00000000       0.00000000       0.00000000       0.99308649      -0.63298176       1.17658968
H        0.00000000       0.00000000       0.00000000      -2.17633781       0.55197768       0.18720358
O        0.00000000       0.00000000       0.00000000       0.08043439       0.56880617      -0.48265069
O        0.00000000       0.00000000       0.00000000       0.65110385       0.72492617      -0.53369877
O        0.00000000       0.00000000       0.00000000       1.04793362      -1.14429463       1.05394045
O        0.00000000       0.00000000       0.00000000       0.79379854      -0.79758331      -0.11371822
13
Lattice="529.1772105638412 0.0 0.0 0.0 529.1772105638412 0.0 0.0 0.0 529.1772105638412" Properties=species:S:1:pos:R:3:forces_component_raw:R:3 ipi_comment="Step:         240  Bead:       0 forces_component_raw{ase}  cell{ase}" pbc="T T T"
H        0.00000000       0.00000000       0.00000000      -0.02869078      -0.85880547       0.01557266
H        0.00000000       0.00000000       0.00000000       0.01666313      -0.64902089       0.27474817
H        0.00000000       0.00000000       0.00000000       1.14811301      -0.19170273      -0.26969834
H        0.00000000       0.00000000       0.00000000       0.55065682      -0.97576908      -0.05224075
H        0.00000000       0.00000000       0.00000000      -0.34290296      -0.70366555       0.86074810
H        0.00000000       0.00000000       0.00000000      -0.84351272       0.68445111      -1.35179298
H        0.00000000       0.00000000       0.00000000       0.07679777       0.88501649       0.49817386
H        0.00000000       0.00000000       0.00000000       0.43936410      -0.26681753       1.00670808
H        0.00000000       0.00000000       0.00000000      -1.33562754       0.31048429       0.68871080
O        0.00000000       0.00000000       0.00000000      -0.40913449      -0.08237518      -0.23409848
O        0.00000000       0.00000000       0.00000000      -0.29143577       1.83832023      -0.77109059
O        0.00000000       0.00000000       0.00000000       0.36293348      -0.16686720       0.91431029
O        0.00000000       0.00000000       0.00000000       0.65677594       0.17675152      -1.58005081
13
Lattice="529.1772105638412 0.0 0.0 0.0 529.1772105638412 0.0 0.0 0.0 529.1772105638412" Properties=species:S:1:pos:R:3:forces_component_raw:R:3 ipi_comment="Step:         260  Bead:       0 forces_component_raw{ase}  cell{ase}" pbc="T T T"
H        0.00000000       0.00000000       0.00000000      -0.22080928       0.67923050       0.18183683
H        0.00000000       0.00000000       0.00000000      -0.40910979      -0.10936216       0.71606568
H        0.00000000       0.00000000       0.00000000       0.97390252      -0.38842666       0.18079715
H        0.00000000       0.00000000       0.00000000       0.17621513      -0.45228582       0.05814552
H        0.00000000       0.00000000       0.00000000      -0.14969603      -0.51926210       0.76781324
H        0.00000000       0.00000000       0.00000000      -0.34860679      -0.03073605      -0.49597394
H        0.00000000       0.00000000       0.00000000       0.43892194       0.40059822       0.60811824
H        0.00000000       0.00000000       0.00000000       0.12069628      -0.28490288      -0.01035667
H        0.00000000       0.00000000       0.00000000      -0.76532962       0.19647810       0.15554393
O        0.00000000       0.00000000       0.00000000      -0.62789373      -0.78896516      -0.31174613
O        0.00000000       0.00000000       0.00000000      -0.04318156       1.27574256      -0.99252795
O        0.00000000       0.00000000       0.00000000      -0.14483460      -0.33756383      -0.27866049
O        0.00000000       0.00000000       0.00000000       0.99972552       0.35945527      -0.57905540
13
Lattice="529.1772105638412 0.0 0.0 0.0 529.1772105638412 0.0 0.0 0.0 529.1772105638412" Properties=species:S:1:pos:R:3:forces_component_raw:R:3 ipi_comment="Step:         280  Bead:       0 forces_component_raw{ase}  cell{ase}" pbc="T T T"
H        0.00000000       0.00000000       0.00000000      -0.94445627       0.73462433      -0.43074048
H        0.00000000       0.00000000       0.00000000      -0.70553463      -1.11716407       1.53677113
H        0.00000000       0.00000000       0.00000000       0.63563790       0.11060587      -0.32247944
H        0.00000000       0.00000000       0.00000000      -0.11757088       0.97032314      -0.35945052
H        0.00000000       0.00000000       0.00000000      -0.48621902      -0.55007147       0.74506887
H        0.00000000       0.00000000       0.00000000      -0.04548270       0.32809921      -0.26970958
H        0.00000000       0.00000000       0.00000000      -0.36805718       0.24199816      -0.25044074
H        0.00000000       0.00000000       0.00000000      -0.28914122      -0.07373206      -0.05938858
H        0.00000000       0.00000000       0.00000000      -0.45905579       0.03178527       0.37586241
O        0.00000000       0.00000000       0.00000000       0.14010615       0.49661119      -1.08840880
O        0.00000000       0.00000000       0.00000000       0.58126611      -0.65356144      -0.09613144
O        0.00000000       0.00000000       0.00000000       1.09640329      -0.82660857       0.76559719
O        0.00000000       0.00000000       0.00000000       0.96210424       0.30709045      -0.54655003
13
Lattice="529.1772105638412 0.0 0.0 0.0 529.1772105638412 0.0 0.0 0.0 529.1772105638412" Properties=species:S:1:pos:R:3:forces_component_raw:R:3 ipi_comment="Step:         300  Bead:       0 forces_component_raw{ase}  cell{ase}" pbc="T T T"
H        0.00000000       0.00000000       0.00000000      -0.71869247       0.77237892       0.61007492
H        0.00000000       0.00000000       0.00000000      -0.47854853      -0.71654570       0.79598784
H        0.00000000       0.00000000       0.00000000       1.24577455      -0.53258323       0.17403509
H        0.00000000       0.00000000       0.00000000      -0.50352201       1.13708230      -0.19087244
H        0.00000000       0.00000000       0.00000000      -0.27177574      -0.27792025       0.54538507
H        0.00000000       0.00000000       0.00000000      -0.60138616      -0.08928384      -0.30913000
H        0.00000000       0.00000000       0.00000000       0.13921183       0.05893633       0.48409117
H        0.00000000       0.00000000       0.00000000      -0.26918718       0.28607447      -0.49891633
H        0.00000000       0.00000000       0.00000000      -0.08465122      -0.00690584      -0.17417422
O        0.00000000       0.00000000       0.00000000      -0.47804752       0.01759178      -0.46549774
O        0.00000000       0.00000000       0.00000000       0.38015524      -0.60629443      -0.47664538
O        0.00000000       0.00000000       0.00000000       0.87402949      -0.42551973      -0.61518591
O        0.00000000       0.00000000       0.00000000       0.76663971       0.38298924       0.12084793
13
Lattice="529.1772105638412 0.0 0.0 0.0 529.1772105638412 0.0 0.0 0.0 529.1772105638412" Properties=species:S:1:pos:R:3:forces_component_raw:R:3 ipi_comment="Step:         320  Bead:       0 forces_component_raw{ase}  cell{ase}" pbc="T T T"
H        0.00000000       0.00000000       0.00000000      -0.47969930       0.50590475      -0.46675924
H        0.00000000       0.00000000       0.00000000      -0.71855446      -0.51133077       0.50282074
H        0.00000000       0.00000000       0.00000000       0.77093945       0.33036299      -0.44134811
H        0.00000000       0.00000000       0.00000000      -0.16722554       1.27505021      -0.19014339
H        0.00000000       0.00000000       0.00000000      -0.04155747       0.26175105      -0.33193497
H        0.00000000       0.00000000       0.00000000      -0.17818658       0.07542135      -0.38441549
H        0.00000000       0.00000000       0.00000000      -0.23894934       0.17632275      -0.12671479
H        0.00000000       0.00000000       0.00000000      -0.28143935       0.77145111      -0.09640384
H        0.00000000       0.00000000       0.00000000       0.58735056      -0.41863857      -0.50411179
O        0.00000000       0.00000000       0.00000000       0.38104713       0.14536187      -0.23508315
O        0.00000000       0.00000000       0.00000000      -0.35215372      -1.85753543       0.85270595
O        0.00000000       0.00000000       0.00000000       0.81322786      -0.46211850       0.82389987
O        0.00000000       0.00000000       0.00000000      -0.09479923      -0.29200281       0.59748820
13
Lattice="529.1772105638412 0.0 0.0 0.0 529.1772105638412 0.0 0.0 0.0 529.1772105638412" Properties=species:S:1:pos:R:3:forces_component_raw:R:3 ipi_comment="Step:         340  Bead:       0 forces_component_raw{ase}  cell{ase}" pbc="T T T"
H        0.00000000       0.00000000       0.00000000      -0.56330427       0.90803779      -0.14160007
H        0.00000000       0.00000000       0.00000000      -0.73904938      -0.68191267       0.94860359
H        0.00000000       0.00000000       0.00000000       1.14710541      -0.47819492       0.07603025
H        0.00000000       0.00000000       0.00000000      -0.57084349       0.72009870      -0.26429812
H        0.00000000       0.00000000       0.00000000       0.53446162       0.06990628      -0.49436418
H        0.00000000       0.00000000       0.00000000       0.14522211      -0.15089052       0.13848840
H        0.00000000       0.00000000       0.00000000       0.28200467       0.51466799       0.22844242
H        0.00000000       0.00000000       0.00000000       0.04128959       0.12148474       0.08247348
H        0.00000000       0.00000000       0.00000000       1.02189284      -0.32904790      -1.02115822
O        0.00000000       0.00000000       0.00000000       0.58487553       0.67670335      -0.87795163
O        0.00000000       0.00000000       0.00000000      -0.87220492      -0.38528476       0.64664383
O        0.00000000       0.00000000       0.00000000       0.02234230      -1.03182474      -0.28634639
O        0.00000000       0.00000000       0.00000000      -1.03379200       0.04625667       0.96503664
13
Lattice="529.1772105638412 0.0 0.0 0.0 529.1772105638412 0.0 0.0 0.0 529.1772105638412" Properties=species:S:1:pos:R:3:forces_component_raw:R:3 ipi_comment="Step:         360  Bead:       0 forces_component_raw{ase}  cell{ase}" pbc="T T T"
H        0.00000000       0.00000000       0.00000000      -1.18742266       0.45733321       0.47266466
H        0.00000000       0.00000000       0.00000000      -0.26599464      -0.72993917       0.65653042
H        0.00000000       0.00000000       0.00000000       0.99027791       0.53862234      -0.62895949
H        0.00000000       0.00000000       0.00000000      -0.24471986       0.49534896      -0.04565469
H        0.00000000       0.00000000       0.00000000      -0.10825801       0.18217233      -0.29812220
H        0.00000000       0.00000000       0.00000000       0.35482884       0.07797635       0.19994147
H        0.00000000       0.00000000       0.00000000       0.16613067       0.94261341       0.17143130