13
Lattice="529.1772105638412 0.0 0.0 0.0 529.1772105638412 0.0 0.0 0.0 529.1772105638412" Properties=species:S:1:pos:R:3:forces_component_raw:R:3 ipi_comment="Step:           0  Bead:       0 forces_component_raw{ase}  cell{ase}" pbc="T T T"
H        0.00000000       0.00000000       0.00000000      -0.37080214       2.09453609       0.28561572
H        0.00000000       0.00000000       0.00000000      -0.14883449      -0.22914921       0.71387488
H        0.00000000       0.00000000       0.00000000       2.48033249      -0.14443465       0.34657872
H        0.00000000       0.00000000       0.00000000       0.65637929      -0.32995946       0.49100039
H        0.00000000       0.00000000       0.00000000       0.72117983      -0.02971824       0.38653045
H        0.00000000       0.00000000       0.00000000      -0.08288030       0.46280962      -0.92101712
H        0.00000000       0.00000000       0.00000000       0.10581737      -0.70536220      -0.41435135
H        0.00000000       0.00000000       0.00000000       0.02546613       0.08695554      -0.22004848
H        0.00000000       0.00000000       0.00000000      -0.40530417      -0.13522261      -0.16091856
O        0.00000000       0.00000000       0.00000000      -2.26249730      -1.81439905      -0.54424111
O        0.00000000       0.00000000       0.00000000      -1.27354726       0.15561911      -0.78802508
O        0.00000000       0.00000000       0.00000000      -0.27696110      -0.02380837       1.19333003
O        0.00000000       0.00000000       0.00000000       0.83165164       0.61213343      -0.36832849
13
Lattice="529.1772105638412 0.0 0.0 0.0 529.1772105638412 0.0 0.0 0.0 529.1772105638412" Properties=species:S:1:pos:R:3:forces_component_raw:R:3 ipi_comment="Step:          20  Bead:       0 forces_component_raw{ase}  cell{ase}" pbc="T T T"
H        0.00000000       0.00000000       0.00000000       0.40131336      -3.43430615      -0.27929142
H        0.00000000       0.00000000       0.00000000      -0.72376069      -0.73062284       1.11950363
H        0.00000000       0.00000000       0.00000000      -4.42755495      -0.15174785       0.29840899
H        0.00000000       0.00000000       0.00000000      -0.31040322      -1.15560451      -0.07975036
H        0.00000000       0.00000000       0.00000000      -0.91229654      -0.13689347      -0.35284535
H        0.00000000       0.00000000       0.00000000      -0.23387673       0.57283185      -0.79734206
H        0.00000000       0.00000000       0.00000000       0.03861559      -0.09891664      -0.71276004
H        0.00000000       0.00000000       0.00000000       0.57700699      -0.12661090       1.07140989
H        0.00000000       0.00000000       0.00000000      -0.05127322       0.08212264      -0.28463252
O        0.00000000       0.00000000       0.00000000       0.73217024       0.99919286       0.01248573
O        0.00000000       0.00000000       0.00000000       4.80917680       1.36351334       0.04140804
O        0.00000000       0.00000000       0.00000000       0.04665092       2.31927913       1.53705379
O        0.00000000       0.00000000       0.00000000       0.05423146       0.49776254      -1.57364832
13
Lattice="529.1772105638412 0.0 0.0 0.0 529.1772105638412 0.0 0.0 0.0 529.1772105638412" Properties=species:S:1:pos:R:3:forces_component_raw:R:3 ipi_comment="Step:          40  Bead:       0 forces_component_raw{ase}  cell{ase}" pbc="T T T"
H        0.00000000       0.00000000       0.00000000      -0.19930654       1.03075517       0.30345155
H        0.00000000       0.00000000       0.00000000      -0.29819520      -0.14556621       0.06297436
H        0.00000000       0.00000000       0.00000000       1.75775631       0.02700022       0.18503288
H        0.00000000       0.00000000       0.00000000       0.73495952      -0.09532483       0.18766389
H        0.00000000       0.00000000       0.00000000      -0.55997970      -1.60727610      -0.36490610
H        0.00000000       0.00000000       0.00000000       0.08236439      -0.49973134      -0.02418019
H        0.00000000       0.00000000       0.00000000       0.24564451      -0.73435398      -0.21974919
H        0.00000000       0.00000000       0.00000000       0.44535086      -0.37765864       1.07473257
H        0.00000000       0.00000000       0.00000000      -0.14783082      -0.05257587      -0.03071100
O        0.00000000       0.00000000       0.00000000      -1.59249057      -1.82246093      -0.04266027
O        0.00000000       0.00000000       0.00000000      -0.30439202       1.59442949       0.20927967
O        0.00000000       0.00000000       0.00000000      -0.37544256       1.65122313       0.25302277
O        0.00000000       0.00000000       0.00000000       0.21156182       1.03153989      -1.59395093
13
Lattice="529.1772105638412 0.0 0.0 0.0 529.1772105638412 0.0 0.0 0.0 529.1772105638412" Properties=species:S:1:pos:R:3:forces_component_raw:R:3 ipi_comment="Step:          60  Bead:       0 forces_component_raw{ase}  cell{ase}" pbc="T T T"
H        0.00000000       0.00000000       0.00000000       0.04143125      -0.87952268       0.16293548
H        0.00000000       0.00000000       0.00000000      -0.35174088      -0.93454580       1.10047818
H        0.00000000       0.00000000       0.00000000      -1.20115071       0.18820503      -0.20749066
H        0.00000000       0.00000000       0.00000000      -0.42686488      -0.18898288      -0.04708558
H        0.00000000       0.00000000       0.00000000      -1.33297036      -0.18484844      -0.04043053
H        0.00000000       0.00000000       0.00000000      -0.16081790      -0.23619803       1.04143157
H        0.00000000       0.00000000       0.00000000      -0.11992664       0.14523731      -0.46277692
H        0.00000000       0.00000000       0.00000000       0.44135392      -0.03942867       0.30611420
H        0.00000000       0.00000000       0.00000000      -0.08673350       0.10617531      -0.22316727
O        0.00000000       0.00000000       0.00000000       1.73187106       2.00691071      -1.55722650
O        0.00000000       0.00000000       0.00000000       2.13015612       0.18048454       0.04757040
O        0.00000000       0.00000000       0.00000000       0.35556754       0.35070723      -0.75438116
O        0.00000000       0.00000000       0.00000000      -1.02017502      -0.51419362       0.63402877
13
Lattice="529.1772105638412 0.0 0.0 0.0 529.1772105638412 0.0 0.0 0.0 529.1772105638412" Properties=species:S:1:pos:R:3:forces_component_raw:R:3 ipi_comment="Step:          80  Bead:       0 forces_component_raw{ase}  cell{ase}" pbc="T T T"
H        0.00000000       0.00000000       0.00000000       0.25257294      -1.38238117      -0.01963898
H        0.00000000       0.00000000       0.00000000       0.18243426       1.64188102      -0.67843854
H        0.00000000       0.00000000       0.00000000       3.01531821       0.30153286      -0.00060293
H        0.00000000       0.00000000       0.00000000       0.00858410       1.10864077       0.25208756
H        0.00000000       0.00000000       0.00000000      -0.30693038      -0.95550560      -0.16759650
H        0.00000000       0.00000000       0.00000000       0.65314069      -0.98333697       0.51030067
H        0.00000000       0.00000000       0.00000000       0.18255362      -0.40613468       0.48931160
H        0.00000000       0.00000000       0.00000000      -0.81626942      -0.09416492      -0.34913589
H        0.00000000       0.00000000       0.00000000       0.49292847      -0.22730368       0.25530986
O        0.00000000       0.00000000       0.00000000      -3.54751153       0.52677357      -0.46562479
O        0.00000000       0.00000000       0.00000000       0.92095943      -0.12449455      -0.13282350
O        0.00000000       0.00000000       0.00000000      -0.76518243       1.29045745      -0.88304992
O        0.00000000       0.00000000       0.00000000      -0.27259796      -0.69596410       1.18990135
13
Lattice="529.1772105638412 0.0 0.0 0.0 529.1772105638412 0.0 0.0 0.0 529.1772105638412" Properties=species:S:1:pos:R:3:forces_component_raw:R:3 ipi_comment="Step:         100  Bead:       0 forces_component_raw{ase}  cell{ase}" pbc="T T T"
H        0.00000000       0.00000000       0.00000000       0.57453897       0.26879846       0.36305346
H        0.00000000       0.00000000       0.00000000       0.16302658      -0.89279859       0.70165245
H        0.00000000       0.00000000       0.00000000      -0.11806196       0.34647972       0.31365827
H        0.00000000       0.00000000       0.00000000      -1.21163995       0.91713118       0.52312801
H        0.00000000       0.00000000       0.00000000      -0.54641994       0.23156877       0.06310735
H        0.00000000       0.00000000       0.00000000       0.00265682       0.12650701       1.92140517
H        0.00000000       0.00000000       0.00000000      -0.37505627       0.35338683      -0.59853918
H        0.00000000       0.00000000       0.00000000      -0.49358076       1.14471738      -0.91029943
H        0.00000000       0.00000000       0.00000000       0.10152479       0.50745877      -0.36392441
O        0.00000000       0.00000000       0.00000000      -0.34649824       0.99947592      -1.31661393
O        0.00000000       0.00000000       0.00000000       1.82107406      -1.33796394      -0.53889801
O        0.00000000       0.00000000       0.00000000       0.19625066      -1.10176991      -1.60959347
O        0.00000000       0.00000000       0.00000000       0.23218524      -1.56299160       1.45186370
13
Lattice="529.1772105638412 0.0 0.0 0.0 529.1772105638412 0.0 0.0 0.0 529.1772105638412" Properties=species:S:1:pos:R:3:forces_component_raw:R:3 ipi_comment="Step:         120  Bead:       0 forces_component_raw{ase}  cell{ase}" pbc="T T T"
H        0.00000000       0.00000000       0.00000000      -0.38188962      -1.48909992      -0.07996418
H        0.00000000       0.00000000       0.00000000      -0.05299015       0.19577104      -0.68998890
H        0.00000000       0.00000000       0.00000000      -1.32388908      -0.20530469      -0.62448752
H        0.00000000       0.00000000       0.00000000      -1.24615897       1.85829510       0.52286273
H        0.00000000       0.00000000       0.00000000       0.80031114       0.00348924      -0.32378653
H        0.00000000       0.00000000       0.00000000       1.17690043      -1.15290786       0.98238214
H        0.00000000       0.00000000       0.00000000       0.17844540      -0.38127379       0.62790504
H        0.00000000       0.00000000       0.00000000      -1.41649562       0.79177236      -0.84195604
H        0.00000000       0.00000000       0.00000000       0.86238345       0.03280323       0.19260345
O        0.00000000       0.00000000       0.00000000       0.36165684      -0.29119896       1.71641933
O        0.00000000       0.00000000       0.00000000       1.30197219      -1.62074305       0.01592064
O        0.00000000       0.00000000       0.00000000      -1.24322977       2.74864940      -1.61092425
O        0.00000000       0.00000000       0.00000000       0.98298377      -0.49025210       0.11301408
13
Lattice="529.1772105638412 0.0 0.0 0.0 529.1772105638412 0.0 0.0 0.0 529.1772105638412" Properties=species:S:1:pos:R:3:forces_component_raw:R:3 ipi_comment="Step:         140  Bead:       0 forces_component_raw{ase}  cell{ase}" pbc="T T T"
H        0.00000000       0.00000000       0.00000000       0.59651405      -0.11854522      -0.20848547
H        0.00000000       0.00000000       0.00000000      -0.15841593      -0.84790528       1.57464620
H        0.00000000       0.00000000       0.00000000      -0.35845594       1.07105154       0.79237882
H        0.00000000       0.00000000       0.00000000      -1.47396497       1.32203875       1.02492659
H        0.00000000       0.00000000       0.00000000       0.18535980       1.33797052      -0.46972588
H        0.00000000       0.00000000       0.00000000       0.42334598      -0.52390790       1.66900642
H        0.00000000       0.00000000       0.00000000      -0.54968288       0.60148977       0.09019867
H        0.00000000       0.00000000       0.00000000       0.26946621       0.79697493      -0.24190582
H        0.00000000       0.00000000       0.00000000       0.25156306       0.69130532      -0.02458432
O        0.00000000       0.00000000       0.00000000       0.81334921      -0.12144861      -1.25450185
O        0.00000000       0.00000000       0.00000000       0.60254072      -3.22318615      -0.85867019
O        0.00000000       0.00000000       0.00000000      -0.20673787       0.30587662      -1.58368903
O        0.00000000       0.00000000       0.00000000      -0.39488144      -1.29171429      -0.50959413
13
Lattice="529.1772105638412 0.0 0.0 0.0 529.1772105638412 0.0 0.0 0.0 529.1772105638412" Properties=species:S:1:pos:R:3:forces_component_raw:R:3 ipi_comment="Step:         160  Bead:       0 forces_component_raw{ase}  cell{ase}" pbc="T T T"
H        0.00000000       0.00000000       0.00000000       0.08828711      -0.60094670       0.27416110
H        0.00000000       0.00000000       0.00000000      -0.64402896      -0.12006932       0.67179053
H        0.00000000       0.00000000       0.00000000      -0.76373451      -0.57428593      -0.02802815
H        0.00000000       0.00000000       0.00000000      -0.52283312       2.07106685       0.16069360
H        0.00000000       0.00000000       0.00000000       1.15865259       0.33942644      -0.66366308
H        0.00000000       0.00000000       0.00000000       1.06067191      -1.02420811       0.77631871
H        0.00000000       0.00000000       0.00000000      -0.09727862      -0.05022805       0.94068477
H        0.00000000       0.00000000       0.00000000      -0.08816451      -0.05036743      -0.03056771
H        0.00000000       0.00000000       0.00000000      -0.00623771      -0.11404467       0.02159103
O        0.00000000       0.00000000       0.00000000       0.74943134       0.66457281       0.07759310
O        0.00000000       0.00000000       0.00000000      -0.64253588      -2.00836582       0.42064597
O        0.00000000       0.00000000       0.00000000      -0.88455226       1.05674457      -1.89877056
O        0.00000000       0.00000000       0.00000000       0.59232263       0.41070537      -0.72244931
13
Lattice="529.1772105638412 0.0 0.0 0.0 529.1772105638412 0.0 0.0 0.0 529.1772105638412" Properties=species:S:1:pos:R:3:forces_component_raw:R:3 ipi_comment="Step:         180  Bead:       0 forces_component_raw{ase}  cell{ase}" pbc="T T T"
H        0.00000000       0.00000000       0.00000000       0.04297104      -0.01520521      -0.09934198
H        0.00000000       0.00000000       0.00000000      -0.03467943      -0.47194548       0.01419549
H        0.00000000       0.00000000       0.00000000      -1.11771620       0.72325981      -0.54193825
H        0.00000000       0.00000000       0.00000000      -0.71265871       0.62237435       0.49522121
H        0.00000000       0.00000000       0.00000000       0.01129576       1.21476302      -0.30757294
H        0.00000000       0.00000000       0.00000000      -0.15893379       0.03992685       0.13607445
H        0.00000000       0.00000000       0.00000000      -0.28181279       0.25677762       0.16041882
H        0.00000000       0.00000000       0.00000000       0.76949245      -0.15228364       0.19476674
H        0.00000000       0.00000000       0.00000000      -0.35626588       0.33421990      -0.46100658
O        0.00000000       0.00000000       0.00000000       0.17084476       0.79375908       0.64936797
O        0.00000000       0.00000000       0.00000000       1.02961012      -2.36992353       0.15393895
O        0.00000000       0.00000000       0.00000000       0.76430881      -0.98825312      -0.36961585
O        0.00000000       0.00000000       0.00000000      -0.12645614       0.01253035      -0.02450801
13
Lattice="529.1772105638412 0.0 0.0 0.0 529.1772105638412 0.0 0.0 0.0 529.1772105638412" Properties=species:S:1:pos:R:3:forces_component_raw:R:3 ipi_comment="Step:         200  Bead:       0 forces_component_raw{ase}  cell{ase}" pbc="T T T"
H        0.00000000       0.00000000       0.00000000       0.27210764      -0.53419152       0.61628749
H        0.00000000       0.00000000       0.00000000       0.78385629       0.80590176      -0.21782280
H        0.00000000       0.00000000       0.00000000      -0.97939645      -0.76154000       0.66221312
H        0.00000000       0.00000000       0.00000000       0.29605123       0.24021825      -0.35800832
H        0.00000000       0.00000000       0.00000000       0.28287199      -0.62485499      -0.10597076
H        0.00000000       0.00000000       0.00000000      -0.52689247       0.09462950      -1.25272692
H        0.00000000       0.00000000       0.00000000       0.32697426      -0.15699611       0.82071692
H        0.00000000       0.00000000       0.00000000       0.49787521      -0.49638639       0.88261999
H        0.00000000       0.00000000       0.00000000      -0.81669814      -0.10961034       0.25109996
O        0.00000000       0.00000000       0.00000000      -0.12971123       0.99636821      -0.76193324
O        0.00000000       0.00000000       0.00000000      -0.22342731       0.75111614       0.18853471
O        0.00000000       0.00000000       0.00000000       0.32291162      -0.35021172       0.14634434
O        0.00000000       0.00000000       0.00000000      -0.10652264       0.14555722      -0.87135450
13
Lattice="529.1772105638412 0.0 0.0 0.0 529.1772105638412 0.0 0.0 0.0 529.1772105638412" Properties=species:S:1:pos:R:3:forces_component_raw:R:3 ipi_comment="Step:         220  Bead:       0 forces_component_raw{ase}  cell{ase}" pbc="T T T"
H        0.00000000       0.00000000       0.00000000       0.56336211      -0.09541950      -0.40333872
H        0.00000000       0.00000000       0.00000000       0.12659662       0.54183198      -0.83740037
H        0.00000000       0.00000000       0.00000000      -0.74382780       0.44538106      -0.20222432
H        0.00000000       0.00000000       0.00000000      -0.06957301      -0.62353794       0.05547826
H        0.00000000       0.00000000       0.00000000      -1.02805349      -0.37814076       0.54698962
H        0.00000000       0.00000000       0.00000000      -1.00404321       0.53211980      -1.18797521
H        0.00000000       0.00000000       0.00000000       0.06741864       0.18650062       0.45723058
H        0.00000000       0.00000000       0.00000000       1.16120820      -0.57772922       1.03757188
H        0.00000000       0.00000000       0.00000000      -2.01583172       0.61385944      -0.03346478
O        0.00000000       0.00000000       0.00000000       0.53522467       0.45004473      -0.06651507
O        0.00000000       0.00000000       0.00000000       1.18837348       0.79175082      -0.45375404
O        0.00000000       0.00000000       0.00000000       0.91664470      -0.84832090       0.80522348
O        0.00000000       0.00000000       0.00000000       0.30250081      -1.03834013       0.28217869
13
Lattice="529.1772105638412 0.0 0.0 0.0 529.1772105638412 0.0 0.0 0.0 529.1772105638412" Properties=species:S:1:pos:R:3:forces_component_raw:R:3 ipi_comment="Step:         240  Bead:       0 forces_component_raw{ase}  cell{ase}" pbc="T T T"
H        0.00000000       0.00000000       0.00000000       0.36550796      -1.81200427       0.11972296
H        0.00000000       0.00000000       0.00000000       0.36979677       0.02697034      -0.46562498
H        0.00000000       0.00000000       0.00000000       1.26376805      -0.13328364      -0.25924353
H        0.00000000       0.00000000       0.00000000       0.46638771      -0.98150984      -0.08952642
H        0.00000000       0.00000000       0.00000000      -0.49759512      -0.69723559       0.82507509
H        0.00000000       0.00000000       0.00000000      -0.76969249       0.69589702      -1.29707107
H        0.00000000       0.00000000       0.00000000       0.08405615       0.84367175       0.40309750
H        0.00000000       0.00000000       0.00000000       0.53319017      -0.18772984       0.96650053
H        0.00000000       0.00000000       0.00000000      -1.27270535       0.45927837       0.56238329
O        0.00000000       0.00000000       0.00000000      -1.18966892       0.50204561       0.20358952
O        0.00000000       0.00000000       0.00000000       0.15618334       1.78699999      -0.68918296
O        0.00000000       0.00000000       0.00000000       0.14793236      -0.07849557       0.91350274
O        0.00000000       0.00000000       0.00000000       0.34283936      -0.42460433      -1.19322266
13
Lattice="529.1772105638412 0.0 0.0 0.0 529.1772105638412 0.0 0.0 0.0 529.1772105638412" Properties=species:S:1:pos:R:3:forces_component_raw:R:3 ipi_comment="Step:         260  Bead:       0 forces_component_raw{ase}  cell{ase}" pbc="T T T"
H        0.00000000       0.00000000       0.00000000       0.30239251       0.02208001       0.15293244
H        0.00000000       0.00000000       0.00000000      -0.16469689       0.22857386       0.41907533
H        0.00000000       0.00000000       0.00000000       0.02093318      -0.18730199       0.16169267
H        0.00000000       0.00000000       0.00000000      -0.02906081      -0.27066631      -0.03341418
H        0.00000000       0.00000000       0.00000000      -0.40025479      -0.66424909       0.89325211
H        0.00000000       0.00000000       0.00000000      -0.17811302      -0.15824902      -0.41967059
H        0.00000000       0.00000000       0.00000000       0.49364997       0.19588530       0.49125681
H        0.00000000       0.00000000       0.00000000       0.24979653      -0.18031976       0.02860994
H        0.00000000       0.00000000       0.00000000      -0.67521830       0.32553018       0.09580381
O        0.00000000       0.00000000       0.00000000      -0.21868199      -0.45184605      -0.08945090
O        0.00000000       0.00000000       0.00000000       0.30559929       1.21593308      -0.91854309
O        0.00000000       0.00000000       0.00000000      -0.44473960      -0.12019310      -0.16361931
O        0.00000000       0.00000000       0.00000000       0.73839391       0.04482287      -0.61792503
13
Lattice="529.1772105638412 0.0 0.0 0.0 529.1772105638412 0.0 0.0 0.0 529.1772105638412" Properties=species:S:1:pos:R:3:forces_component_raw:R:3 ipi_comment="Step:         280  Bead:       0 forces_component_raw{ase}  cell{ase}" pbc="T T T"
H        0.00000000       0.00000000       0.00000000       0.03614497      -0.43102897      -0.44827528
H        0.00000000       0.00000000       0.00000000      -0.56836678      -1.05878352       1.45410499
H        0.00000000       0.00000000       0.00000000      -0.74637269       0.43910614      -0.20464762
H        0.00000000       0.00000000       0.00000000      -0.36354728       1.15106578      -0.46531701
H        0.00000000       0.00000000       0.00000000      -0.66247304      -0.73066823       0.88669384
H        0.00000000       0.00000000       0.00000000       0.10730411       0.32880164      -0.16752615
H        0.00000000       0.00000000       0.00000000      -0.38950413       0.09874158      -0.39286409
H        0.00000000       0.00000000       0.00000000      -0.06833318      -0.04792378       0.12542119
H        0.00000000       0.00000000       0.00000000      -0.45132477       0.22842876       0.40181998
O        0.00000000       0.00000000       0.00000000       0.64712896       0.92865727      -1.02955750
O        0.00000000       0.00000000       0.00000000       1.01424121      -0.58501565      -0.10548770
O        0.00000000       0.00000000       0.00000000       0.68483219      -0.44173477       0.82080414
O        0.00000000       0.00000000       0.00000000       0.76027043       0.12035375      -0.87516879
13
Lattice="529.1772105638412 0.0 0.0 0.0 529.1772105638412 0.0 0.0 0.0 529.1772105638412" Properties=species:S:1:pos:R:3:forces_component_raw:R:3 ipi_comment="Step:         300  Bead:       0 forces_component_raw{ase}  cell{ase}" pbc="T T T"
H        0.00000000       0.00000000       0.00000000       0.31844845      -0.50139661       0.72286245
H        0.00000000       0.00000000       0.00000000       0.22249685      -0.13181762       0.19614252
H        0.00000000       0.00000000       0.00000000      -0.24753323      -0.45000407       0.54045937
H        0.00000000       0.00000000       0.00000000      -0.85766629       1.46576593      -0.28853755
H        0.00000000       0.00000000       0.00000000      -0.64211858      -0.46873725       0.82026385
H        0.00000000       0.00000000       0.00000000      -0.60798606      -0.02864901      -0.27175377
H        0.00000000       0.00000000       0.00000000       0.06949014       0.01350249       0.45167457
H        0.00000000       0.00000000       0.00000000      -0.25423365       0.46882327      -0.54066482
H        0.00000000       0.00000000       0.00000000       0.04580777       0.07236870      -0.19379087
O        0.00000000       0.00000000       0.00000000      -0.03772295       0.28131778      -0.36286010
O        0.00000000       0.00000000       0.00000000       0.65656788      -0.62694870      -0.51031572
O        0.00000000       0.00000000       0.00000000       0.74334616      -0.20233171      -0.63080219
O        0.00000000       0.00000000       0.00000000       0.59110352       0.10810679       0.06732227
13
Lattice="529.1772105638412 0.0 0.0 0.0 529.1772105638412 0.0 0.0 0.0 529.1772105638412" Properties=species:S:1:pos:R:3:forces_component_raw:R:3 ipi_comment="Step:         320  Bead:       0 forces_component_raw{ase}  cell{ase}" pbc="T T T"
H        0.00000000       0.00000000       0.00000000       0.56570841      -0.65646219      -0.42949416
H        0.00000000       0.00000000       0.00000000      -0.32248453       0.03053985       0.00314827
H        0.00000000       0.00000000       0.00000000      -0.45469275       0.43002148      -0.18291430
H        0.00000000       0.00000000       0.00000000      -0.55825177       1.55672460      -0.23086680
H        0.00000000       0.00000000       0.00000000      -0.31380627       0.09119508      -0.08134086
H        0.00000000       0.00000000       0.00000000       0.10874317       0.04513789      -0.18176609
H        0.00000000       0.00000000       0.00000000      -0.30811875      -0.09740027      -0.27791320
H        0.00000000       0.00000000       0.00000000      -0.24307422       1.02834614      -0.22682719
H        0.00000000       0.00000000       0.00000000       0.80161796      -0.33818667      -0.74574429
O        0.00000000       0.00000000       0.00000000       0.68643599       0.41998002      -0.08326054
O        0.00000000       0.00000000       0.00000000      -0.06047152      -1.78628579       0.73702633
O        0.00000000       0.00000000       0.00000000       0.43879067      -0.11763573       0.80863511
O        0.00000000       0.00000000       0.00000000      -0.34039639      -0.60597440       0.89131771
13
Lattice="529.1772105638412 0.0 0.0 0.0 529.1772105638412 0.0 0.0 0.0 529.1772105638412" Properties=species:S:1:pos:R:3:forces_component_raw:R:3 ipi_comment="Step:         340  Bead:       0 forces_component_raw{ase}  cell{ase}" pbc="T T T"
H        0.00000000       0.00000000       0.00000000       0.42279660      -0.06013856      -0.12077925
H        0.00000000       0.00000000       0.00000000      -0.33283037      -0.15382902       0.50869299
H        0.00000000       0.00000000       0.00000000      -0.35825410      -0.25257061       0.40231613
H        0.00000000       0.00000000       0.00000000      -0.93497684       1.01204302      -0.36761773
H        0.00000000       0.00000000       0.00000000       0.29922772      -0.07243522      -0.31292924
H        0.00000000       0.00000000       0.00000000       0.46745893      -0.35339006       0.31768521
H        0.00000000       0.00000000       0.00000000       0.31661188       0.12936915       0.15965055
H        0.00000000       0.00000000       0.00000000       0.09064125       0.35591172       0.06104535
H        0.00000000       0.00000000       0.00000000       1.25003398      -0.28759619      -1.31695007
O        0.00000000       0.00000000       0.00000000       0.85559355       0.97306044      -0.96326357
O        0.00000000       0.00000000       0.00000000      -0.50776130      -0.45887636       0.70456189
O        0.00000000       0.00000000       0.00000000      -0.30249750      -0.61379507      -0.31259886
O        0.00000000       0.00000000       0.00000000      -1.26604380      -0.21775323       1.24018660
13
Lattice="529.1772105638412 0.0 0.0 0.0 529.1772105638412 0.0 0.0 0.0 529.1772105638412" Properties=species:S:1:pos:R:3:forces_component_raw:R:3 ipi_comment="Step:         360  Bead:       0 forces_component_raw{ase}  cell{ase}" pbc="T T T"
H        0.00000000       0.00000000       0.00000000      -0.40634482      -0.62329453       0.72197292
H        0.00000000       0.00000000       0.00000000       0.20415814      -0.22129698       0.08786594
H        0.00000000       0.00000000       0.00000000      -0.50259806       0.96078355      -0.40806515
H        0.00000000       0.00000000       0.00000000      -0.61579021       0.75862582      -0.16922781
H        0.00000000       0.00000000       0.00000000      -0.30655226      -0.03780903      -0.00737675
H        0.00000000       0.00000000       0.00000000       0.67398246      -0.06133694       0.31349510
H        0.00000000       0.00000000       0.00000000       0.23221544       0.62372363       0.08696179