13
Lattice="529.1772105638412 0.0 0.0 0.0 529.1772105638412 0.0 0.0 0.0 529.1772105638412" Properties=species:S:1:pos:R:3:forces_component_raw:R:3 ipi_comment="Step:           0  Bead:       0 forces_component_raw{ase}  cell{ase}" pbc="T T T"
H        0.00000000       0.00000000       0.00000000       0.16037768      -0.10245633       0.02409028
H        0.00000000       0.00000000       0.00000000       0.49360420       0.47989896      -0.84155484
H        0.00000000       0.00000000       0.00000000       0.25261412       0.22697872      -0.33596815
H        0.00000000       0.00000000       0.00000000       0.68524120      -0.53411576       0.28428517
H        0.00000000       0.00000000       0.00000000       0.52409918       0.21531603       0.15750247
H        0.00000000       0.00000000       0.00000000      -0.04413294       0.43391569      -0.68626693
H        0.00000000       0.00000000       0.00000000       0.05375299      -0.55415173      -0.29647066
H        0.00000000       0.00000000       0.00000000      -0.06862298       0.01603742      -0.25132806
H        0.00000000       0.00000000       0.00000000      -0.25943380      -0.10604256      -0.12901484
O        0.00000000       0.00000000       0.00000000      -1.75440230      -1.50105706       1.39389436
O        0.00000000       0.00000000       0.00000000      -0.49274090       0.16271098      -0.22490178
O        0.00000000       0.00000000       0.00000000      -0.15444041       0.84242389       0.84337826
O        0.00000000       0.00000000       0.00000000       0.60408397       0.42054173       0.06235472
13
Lattice="529.1772105638412 0.0 0.0 0.0 529.1772105638412 0.0 0.0 0.0 529.1772105638412" Properties=species:S:1:pos:R:3:forces_component_raw:R:3 ipi_comment="Step:          20  Bead:       0 forces_component_raw{ase}  cell{ase}" pbc="T T T"
H        0.00000000       0.00000000       0.00000000      -0.10685522      -0.15380102       0.01335432
H        0.00000000       0.00000000       0.00000000       0.47834563       0.55679313       0.03469671
H        0.00000000       0.00000000       0.00000000       0.05742779      -0.33983087       0.23499596
H        0.00000000       0.00000000       0.00000000       0.41460801      -0.93363635       0.00780358
H        0.00000000       0.00000000       0.00000000      -0.15195791      -0.20175496      -0.25546025
H        0.00000000       0.00000000       0.00000000      -0.14600402       0.94061982      -0.85900462
H        0.00000000       0.00000000       0.00000000       0.07509114       0.00409944      -0.59602678
H        0.00000000       0.00000000       0.00000000       0.41585749      -0.19830821       0.85536634
H        0.00000000       0.00000000       0.00000000      -0.07166367      -0.05322508      -0.05862480
O        0.00000000       0.00000000       0.00000000      -1.40977275      -1.48754756       0.02046217
O        0.00000000       0.00000000       0.00000000       0.89175040       1.14126354       0.23667519
O        0.00000000       0.00000000       0.00000000      -0.11059190       0.43021068       1.43213792
O        0.00000000       0.00000000       0.00000000      -0.33623498       0.29511744      -1.06637573
13
Lattice="529.1772105638412 0.0 0.0 0.0 529.1772105638412 0.0 0.0 0.0 529.1772105638412" Properties=species:S:1:pos:R:3:forces_component_raw:R:3 ipi_comment="Step:          40  Bead:       0 forces_component_raw{ase}  cell{ase}" pbc="T T T"
H        0.00000000       0.00000000       0.00000000       0.40674822       0.24224569      -0.28012212
H        0.00000000       0.00000000       0.00000000       0.06550054       0.37459164      -0.68543864
H        0.00000000       0.00000000       0.00000000      -0.25962825       0.60833158       0.05299637
H        0.00000000       0.00000000       0.00000000       0.62302511      -0.26675478       0.04977977
H        0.00000000       0.00000000       0.00000000      -0.22475714      -1.06143642      -0.31270693
H        0.00000000       0.00000000       0.00000000       0.01038994       0.13795242      -0.55317931
H        0.00000000       0.00000000       0.00000000       0.27075532      -0.37170751      -0.34838456
H        0.00000000       0.00000000       0.00000000       0.27869093      -0.57435603       0.96955105
H        0.00000000       0.00000000       0.00000000      -0.02145748      -0.15387720       0.12738065
O        0.00000000       0.00000000       0.00000000      -0.91122976      -2.33638582       0.67120130
O        0.00000000       0.00000000       0.00000000       0.54114240       1.07745020       0.24911200
O        0.00000000       0.00000000       0.00000000      -0.54937857       1.62497654       1.02700772
O        0.00000000       0.00000000       0.00000000      -0.22980126       0.69896969      -0.96719731
13
Lattice="529.1772105638412 0.0 0.0 0.0 529.1772105638412 0.0 0.0 0.0 529.1772105638412" Properties=species:S:1:pos:R:3:forces_component_raw:R:3 ipi_comment="Step:          60  Bead:       0 forces_component_raw{ase}  cell{ase}" pbc="T T T"
H        0.00000000       0.00000000       0.00000000      -0.43640827       0.40183979       0.25868496
H        0.00000000       0.00000000       0.00000000       0.46001704       0.15210543      -0.66478161
H        0.00000000       0.00000000       0.00000000      -0.23350035      -0.35899170       0.02850805
H        0.00000000       0.00000000       0.00000000       0.14382337      -0.25291796      -0.06256642
H        0.00000000       0.00000000       0.00000000      -1.01846533      -1.04901644      -0.21568083
H        0.00000000       0.00000000       0.00000000      -0.10942745       0.28369496       0.13793726
H        0.00000000       0.00000000       0.00000000      -0.04654293       0.20636942      -0.19405265
H        0.00000000       0.00000000       0.00000000       0.67832844      -0.31467639       0.69409098
H        0.00000000       0.00000000       0.00000000      -0.14587415       0.18775846      -0.15483886
O        0.00000000       0.00000000       0.00000000       0.05315126      -0.16798707      -0.14250202
O        0.00000000       0.00000000       0.00000000       1.54501344       1.22538974       0.30493541
O        0.00000000       0.00000000       0.00000000       0.05416017      -0.14552869      -0.08619298
O        0.00000000       0.00000000       0.00000000      -0.94427525      -0.16803953       0.09645871
13
Lattice="529.1772105638412 0.0 0.0 0.0 529.1772105638412 0.0 0.0 0.0 529.1772105638412" Properties=species:S:1:pos:R:3:forces_component_raw:R:3 ipi_comment="Step:          80  Bead:       0 forces_component_raw{ase}  cell{ase}" pbc="T T T"
H        0.00000000       0.00000000       0.00000000       0.60330093       1.32125879       0.08889120
H        0.00000000       0.00000000       0.00000000       0.16501724       0.35792667      -0.03061839
H        0.00000000       0.00000000       0.00000000       0.11987090       1.01736234      -0.39126439
H        0.00000000       0.00000000       0.00000000       0.03692008       0.71858385       0.16408495
H        0.00000000       0.00000000       0.00000000      -0.77051524      -1.27163731       0.05845646
H        0.00000000       0.00000000       0.00000000       0.36607534      -0.39477612       0.09178226
H        0.00000000       0.00000000       0.00000000      -0.20628389       0.19405270       0.66919184
H        0.00000000       0.00000000       0.00000000      -0.20629386      -0.55014466       0.43528489
H        0.00000000       0.00000000       0.00000000       0.10602367      -0.30156982       0.41960421
O        0.00000000       0.00000000       0.00000000      -0.81137403      -1.45409945      -0.13543483
O        0.00000000       0.00000000       0.00000000       1.32452466       0.18310573      -0.14315835
O        0.00000000       0.00000000       0.00000000      -0.49915145      -0.18590956      -0.79251665
O        0.00000000       0.00000000       0.00000000      -0.22811433       0.36584684      -0.43430320
13
Lattice="529.1772105638412 0.0 0.0 0.0 529.1772105638412 0.0 0.0 0.0 529.1772105638412" Properties=species:S:1:pos:R:3:forces_component_raw:R:3 ipi_comment="Step:         100  Bead:       0 forces_component_raw{ase}  cell{ase}" pbc="T T T"
H        0.00000000       0.00000000       0.00000000      -0.55549132       0.23963782       0.02960246
H        0.00000000       0.00000000       0.00000000       0.29024632       0.06411701       0.05597126
H        0.00000000       0.00000000       0.00000000      -0.12735227      -0.91243659       0.39453009
H        0.00000000       0.00000000       0.00000000      -1.14346504       1.12092984       0.77694096
H        0.00000000       0.00000000       0.00000000      -0.44303631      -0.91530449       0.52531578
H        0.00000000       0.00000000       0.00000000      -0.14535448      -0.24978478       1.13918794
H        0.00000000       0.00000000       0.00000000      -0.91537558       1.00388500       0.54667319
H        0.00000000       0.00000000       0.00000000      -0.17582646       0.47409631       0.26375263
H        0.00000000       0.00000000       0.00000000      -0.34365234       0.36095710      -0.03876540
O        0.00000000       0.00000000       0.00000000       0.72486059       1.62600378      -0.83406083
O        0.00000000       0.00000000       0.00000000       1.45909231      -0.08988557      -1.40643149
O        0.00000000       0.00000000       0.00000000       0.95153209      -1.54308355      -1.62998329
O        0.00000000       0.00000000       0.00000000       0.42382250      -1.17913189       0.17726671
13
Lattice="529.1772105638412 0.0 0.0 0.0 529.1772105638412 0.0 0.0 0.0 529.1772105638412" Properties=species:S:1:pos:R:3:forces_component_raw:R:3 ipi_comment="Step:         120  Bead:       0 forces_component_raw{ase}  cell{ase}" pbc="T T T"
H        0.00000000       0.00000000       0.00000000       0.80024971      -0.04719257       0.08124514
H        0.00000000       0.00000000       0.00000000      -0.23347505       0.08341637      -0.36058575
H        0.00000000       0.00000000       0.00000000       0.80583858       1.02198589      -0.08460768
H        0.00000000       0.00000000       0.00000000      -1.43691532       1.78485972       0.83156034
H        0.00000000       0.00000000       0.00000000       0.35670989      -0.78289875       0.31104935
H        0.00000000       0.00000000       0.00000000       0.55543526      -0.68400519       0.89884537
H        0.00000000       0.00000000       0.00000000      -0.80424276       0.57958664       1.19361532
H        0.00000000       0.00000000       0.00000000      -1.25333708       0.14472203       0.02932068
H        0.00000000       0.00000000       0.00000000       0.27609911      -0.22189093       0.19678494
O        0.00000000       0.00000000       0.00000000      -1.13207925      -0.71455371       0.56276004
O        0.00000000       0.00000000       0.00000000       0.79869482      -1.22213571      -1.28898862
O        0.00000000       0.00000000       0.00000000      -0.00215198      -0.00172995      -2.13014691
O        0.00000000       0.00000000       0.00000000       1.26917407       0.05983615      -0.24085223
13
Lattice="529.1772105638412 0.0 0.0 0.0 529.1772105638412 0.0 0.0 0.0 529.1772105638412" Properties=species:S:1:pos:R:3:forces_component_raw:R:3 ipi_comment="Step:         140  Bead:       0 forces_component_raw{ase}  cell{ase}" pbc="T T T"
H        0.00000000       0.00000000       0.00000000      -0.48431801      -0.86023890       0.02071893
H        0.00000000       0.00000000       0.00000000       0.35836540      -0.31459084       0.52519876
H        0.00000000       0.00000000       0.00000000      -0.26022074      -0.55409686       0.51162455
H        0.00000000       0.00000000       0.00000000      -1.98773968       1.33351165       0.87556493
H        0.00000000       0.00000000       0.00000000       0.51112411       0.39027237      -0.01456192
H        0.00000000       0.00000000       0.00000000       0.15631447      -0.49639380       1.15822410
H        0.00000000       0.00000000       0.00000000      -0.75251979       0.75364765       0.80161919
H        0.00000000       0.00000000       0.00000000       0.17437476       0.81227996      -0.44775873
H        0.00000000       0.00000000       0.00000000       0.06769487       0.53962412      -0.14995251
O        0.00000000       0.00000000       0.00000000       0.41253158       1.21779392      -0.56600191
O        0.00000000       0.00000000       0.00000000       1.47467719      -1.51794379      -1.06107863
O        0.00000000       0.00000000       0.00000000       0.58176892      -0.11237047      -1.91383036
O        0.00000000       0.00000000       0.00000000      -0.25205310      -1.19149502       0.26023362
13
Lattice="529.1772105638412 0.0 0.0 0.0 529.1772105638412 0.0 0.0 0.0 529.1772105638412" Properties=species:S:1:pos:R:3:forces_component_raw:R:3 ipi_comment="Step:         160  Bead:       0 forces_component_raw{ase}  cell{ase}" pbc="T T T"
H        0.00000000       0.00000000       0.00000000       0.59488875      -1.05961350      -0.21089178
H        0.00000000       0.00000000       0.00000000      -0.36431842       0.67510632       0.11493225
H        0.00000000       0.00000000       0.00000000      -0.65218467       0.69828245      -0.31036665
H        0.00000000       0.00000000       0.00000000      -1.45740188       1.96635885       0.16532714
H        0.00000000       0.00000000       0.00000000       0.88258650       0.58299174      -0.43965108
H        0.00000000       0.00000000       0.00000000       0.53127581      -0.83283558       0.70868474
H        0.00000000       0.00000000       0.00000000      -0.25151683       0.31459065       0.68821632
H        0.00000000       0.00000000       0.00000000      -0.50872279       0.23214526      -0.38165208
H        0.00000000       0.00000000       0.00000000      -0.50825899      -0.39788929       0.32619967
O        0.00000000       0.00000000       0.00000000       0.03755003      -0.90143638       0.87914066
O        0.00000000       0.00000000       0.00000000       0.89007331      -2.60370307       0.30306993
O        0.00000000       0.00000000       0.00000000      -0.51134143       0.99825968      -1.18962690
O        0.00000000       0.00000000       0.00000000       1.31737060       0.32774286      -0.65338221
13
Lattice="529.1772105638412 0.0 0.0 0.0 529.1772105638412 0.0 0.0 0.0 529.1772105638412" Properties=species:S:1:pos:R:3:forces_component_raw:R:3 ipi_comment="Step:         180  Bead:       0 forces_component_raw{ase}  cell{ase}" pbc="T T T"
H        0.00000000       0.00000000       0.00000000       0.89602128      -0.86960924       0.24648180
H        0.00000000       0.00000000       0.00000000       0.72943855      -0.05469126      -0.03417321
H        0.00000000       0.00000000       0.00000000      -0.04022036      -0.32290919       0.66440936
H        0.00000000       0.00000000       0.00000000      -1.09765917       1.07324225       0.00512766
H        0.00000000       0.00000000       0.00000000       0.66623417       1.00736872      -0.34416585
H        0.00000000       0.00000000       0.00000000      -0.07895064       0.22125870       0.01476630
H        0.00000000       0.00000000       0.00000000      -0.08199555       0.26971722      -0.04588783
H        0.00000000       0.00000000       0.00000000       0.37476933       0.12005753      -0.17725553
H        0.00000000       0.00000000       0.00000000      -0.39893023       0.11211777      -0.22705463
O        0.00000000       0.00000000       0.00000000      -1.95133295       0.61903156      -0.66210914
O        0.00000000       0.00000000       0.00000000       1.20050675      -1.97700822       0.25958712
O        0.00000000       0.00000000       0.00000000      -0.17202745       0.00290388      -0.04032627
O        0.00000000       0.00000000       0.00000000      -0.04585373      -0.20147973       0.34060022
13
Lattice="529.1772105638412 0.0 0.0 0.0 529.1772105638412 0.0 0.0 0.0 529.1772105638412" Properties=species:S:1:pos:R:3:forces_component_raw:R:3 ipi_comment="Step:         200  Bead:       0 forces_component_raw{ase}  cell{ase}" pbc="T T T"
H        0.00000000       0.00000000       0.00000000      -0.13882951      -0.62864142       0.48510598
H        0.00000000       0.00000000       0.00000000      -0.40304753       0.31907171      -0.63801470
H        0.00000000       0.00000000       0.00000000      -0.55129271       0.18499703      -0.28654845
H        0.00000000       0.00000000       0.00000000       0.16534093       0.83558111      -0.17077546
H        0.00000000       0.00000000       0.00000000       0.95391710       0.78863819      -0.29340588
H        0.00000000       0.00000000       0.00000000      -0.14402422       0.21011608      -0.50809492
H        0.00000000       0.00000000       0.00000000       0.00738028       0.07434047       0.16187523
H        0.00000000       0.00000000       0.00000000      -0.20769298      -0.50403634       0.53091937
H        0.00000000       0.00000000       0.00000000      -0.64647430      -0.43651618       0.34805763
O        0.00000000       0.00000000       0.00000000       0.76023852       0.26800048      -0.08494397
O        0.00000000       0.00000000       0.00000000      -0.67123989      -1.87128546       0.56157755
O        0.00000000       0.00000000       0.00000000       0.07552636       0.04013260       0.29059285
O        0.00000000       0.00000000       0.00000000       0.80019797       0.71960173      -0.39634524
13
Lattice="529.1772105638412 0.0 0.0 0.0 529.1772105638412 0.0 0.0 0.0 529.1772105638412" Properties=species:S:1:pos:R:3:forces_component_raw:R:3 ipi_comment="Step:         220  Bead:       0 forces_component_raw{ase}  cell{ase}" pbc="T T T"
H        0.00000000       0.00000000       0.00000000       0.76305305      -0.26701370      -0.17202436
H        0.00000000       0.00000000       0.00000000       0.79652505       0.00660289      -0.21320935
H        0.00000000       0.00000000       0.00000000      -0.13400994       0.30105565       0.03143412
H        0.00000000       0.00000000       0.00000000       0.28971117       0.17256533      -0.09238499
H        0.00000000       0.00000000       0.00000000      -0.06046484       0.01509249      -0.05603605
H        0.00000000       0.00000000       0.00000000      -0.34539434       0.34394782      -0.49272364
H        0.00000000       0.00000000       0.00000000       0.02425806       0.22382663      -0.28526822
H        0.00000000       0.00000000       0.00000000       0.85496569      -0.49990074       0.40627441
H        0.00000000       0.00000000       0.00000000      -1.12833646       0.15694586      -0.17633519
O        0.00000000       0.00000000       0.00000000      -0.95171005       0.56109132      -0.82038429
O        0.00000000       0.00000000       0.00000000       0.15121634      -0.41586379       0.23682837
O        0.00000000       0.00000000       0.00000000       0.17440369      -0.46116933       0.91356291
O        0.00000000       0.00000000       0.00000000      -0.43421743      -0.13718044       0.72026627
13
Lattice="529.1772105638412 0.0 0.0 0.0 529.1772105638412 0.0 0.0 0.0 529.1772105638412" Properties=species:S:1:pos:R:3:forces_component_raw:R:3 ipi_comment="Step:         240  Bead:       0 forces_component_raw{ase}  cell{ase}" pbc="T T T"
H        0.00000000       0.00000000       0.00000000      -0.23854880      -0.45099305       0.01733483
H        0.00000000       0.00000000       0.00000000      -0.58690824       0.66468320       0.37967580
H        0.00000000       0.00000000       0.00000000       0.26186049      -0.35429963      -0.19245855
H        0.00000000       0.00000000       0.00000000       0.87010564      -0.89558990       0.41988272
H        0.00000000       0.00000000       0.00000000      -0.35981144      -0.40936676       0.19517900
H        0.00000000       0.00000000       0.00000000      -0.36537075       0.36913239      -0.38042518
H        0.00000000       0.00000000       0.00000000      -0.05648954       0.19440796      -0.41467938
H        0.00000000       0.00000000       0.00000000      -0.12102814      -0.89247966       0.79564099
H        0.00000000       0.00000000       0.00000000      -0.25568138      -0.39567265       0.27269879
O        0.00000000       0.00000000       0.00000000       0.88171798       0.71235718      -1.21029476
O        0.00000000       0.00000000       0.00000000      -0.59111916       1.35028408      -0.52994720
O        0.00000000       0.00000000       0.00000000       0.39972584      -0.40784128       0.95420450
O        0.00000000       0.00000000       0.00000000       0.16154750       0.51537813      -0.30681157
13
Lattice="529.1772105638412 0.0 0.0 0.0 529.1772105638412 0.0 0.0 0.0 529.1772105638412" Properties=species:S:1:pos:R:3:forces_component_raw:R:3 ipi_comment="Step:         260  Bead:       0 forces_component_raw{ase}  cell{ase}" pbc="T T T"
H        0.00000000       0.00000000       0.00000000       0.57751238       0.43509122      -0.28171099
H        0.00000000       0.00000000       0.00000000       0.34539620       0.05814769      -0.64453782
H        0.00000000       0.00000000       0.00000000       0.28028706       0.39170636       0.09860392
H        0.00000000       0.00000000       0.00000000       1.47221579      -0.68285133       0.49885092
H        0.00000000       0.00000000       0.00000000       0.21581260      -0.77381487       0.55650188
H        0.00000000       0.00000000       0.00000000       0.28487454      -0.19985132       0.45288312
H        0.00000000       0.00000000       0.00000000       0.06879923      -0.16055149      -0.34758601
H        0.00000000       0.00000000       0.00000000       0.22340309      -0.47243577       0.30327018
H        0.00000000       0.00000000       0.00000000       0.37523871       0.07262209      -0.07151728
O        0.00000000       0.00000000       0.00000000      -0.67706251      -1.16944392       0.57624379
O        0.00000000       0.00000000       0.00000000      -1.89721204       1.46886983      -1.11006878
O        0.00000000       0.00000000       0.00000000      -0.61268640       0.78556839      -0.08798217
O        0.00000000       0.00000000       0.00000000      -0.65657865       0.24694312       0.05704927
13
Lattice="529.1772105638412 0.0 0.0 0.0 529.1772105638412 0.0 0.0 0.0 529.1772105638412" Properties=species:S:1:pos:R:3:forces_component_raw:R:3 ipi_comment="Step:         280  Bead:       0 forces_component_raw{ase}  cell{ase}" pbc="T T T"
H        0.00000000       0.00000000       0.00000000      -0.89823270       1.24546276       0.36820946
H        0.00000000       0.00000000       0.00000000       0.14177134       0.25042903      -0.01446691
H        0.00000000       0.00000000       0.00000000       0.34584094      -0.22294838       0.14617274
H        0.00000000       0.00000000       0.00000000       0.14679665      -0.24166729       0.16230259
H        0.00000000       0.00000000       0.00000000      -0.15829606      -0.79874359       0.66301944
H        0.00000000       0.00000000       0.00000000       0.11245136       0.21182038       0.44295275
H        0.00000000       0.00000000       0.00000000      -0.02174973      -0.03943366      -0.38264006
H        0.00000000       0.00000000       0.00000000      -0.18646167      -0.21195645       0.13455616
H        0.00000000       0.00000000       0.00000000       0.02497954      -0.27649842       0.19110136
O        0.00000000       0.00000000       0.00000000       0.82499308      -2.16983711       0.01211710
O        0.00000000       0.00000000       0.00000000      -0.33543134       1.09952452      -0.88445783
O        0.00000000       0.00000000       0.00000000      -0.30030247       0.50095916      -0.18142675
O        0.00000000       0.00000000       0.00000000       0.30364107       0.65288905      -0.65744005
13
Lattice="529.1772105638412 0.0 0.0 0.0 529.1772105638412 0.0 0.0 0.0 529.1772105638412" Properties=species:S:1:pos:R:3:forces_component_raw:R:3 ipi_comment="Step:         300  Bead:       0 forces_component_raw{ase}  cell{ase}" pbc="T T T"
H        0.00000000       0.00000000       0.00000000       0.01046483       0.52180603      -0.26354612
H        0.00000000       0.00000000       0.00000000       0.33119366       0.14446896      -0.04177767
H        0.00000000       0.00000000       0.00000000       1.32648727       0.42446902      -0.12722323
H        0.00000000       0.00000000       0.00000000      -0.08188785       0.37084608      -0.45258917
H        0.00000000       0.00000000       0.00000000       0.16425651      -0.71272227       0.65746653
H        0.00000000       0.00000000       0.00000000      -0.05895604       0.17151536       0.09291715
H        0.00000000       0.00000000       0.00000000      -0.11509573       0.08763238      -0.30727467
H        0.00000000       0.00000000       0.00000000      -0.16589111       0.99128348      -0.11080387
H        0.00000000       0.00000000       0.00000000       0.77174719      -0.16085669      -0.08654319
O        0.00000000       0.00000000       0.00000000      -1.91078823      -2.05313595       1.17197838
O        0.00000000       0.00000000       0.00000000      -0.10279223       0.22795814      -0.13433230
O        0.00000000       0.00000000       0.00000000      -0.02616812       0.28012921       0.36854302
O        0.00000000       0.00000000       0.00000000      -0.14257016      -0.29339375      -0.76681487
13
Lattice="529.1772105638412 0.0 0.0 0.0 529.1772105638412 0.0 0.0 0.0 529.1772105638412" Properties=species:S:1:pos:R:3:forces_component_raw:R:3 ipi_comment="Step:         320  Bead:       0 forces_component_raw{ase}  cell{ase}" pbc="T T T"
H        0.00000000       0.00000000       0.00000000       0.36052074      -0.28844853       0.07081156
H        0.00000000       0.00000000       0.00000000       0.21262724       0.06248942       0.12557191
H        0.00000000       0.00000000       0.00000000       1.11025384      -0.03999888      -0.00064343
H        0.00000000       0.00000000       0.00000000      -0.83820008       0.59702903      -0.40519238
H        0.00000000       0.00000000       0.00000000       0.19395008       0.37212273      -0.44887306
H        0.00000000       0.00000000       0.00000000      -0.07447073       0.13882423       0.03727601
H        0.00000000       0.00000000       0.00000000      -0.14031474       0.20207777       0.05496067
H        0.00000000       0.00000000       0.00000000      -0.01876567       1.19964249       0.38025600
H        0.00000000       0.00000000       0.00000000       0.87300087      -0.49114922      -0.14550590
O        0.00000000       0.00000000       0.00000000      -2.05457972      -0.04002577       0.33885485
O        0.00000000       0.00000000       0.00000000       0.72564639      -0.94814304       0.91768634
O        0.00000000       0.00000000       0.00000000       0.18803830      -0.30687584      -0.10342693
O        0.00000000       0.00000000       0.00000000      -0.53770654      -0.45754440      -0.82177564
13
Lattice="529.1772105638412 0.0 0.0 0.0 529.1772105638412 0.0 0.0 0.0 529.1772105638412" Properties=species:S:1:pos:R:3:forces_component_raw:R:3 ipi_comment="Step:         340  Bead:       0 forces_component_raw{ase}  cell{ase}" pbc="T T T"
H        0.00000000       0.00000000       0.00000000       0.22796508      -0.31614675       0.36468529
H        0.00000000       0.00000000       0.00000000      -0.62412766      -0.02954055       0.27176305
H        0.00000000       0.00000000       0.00000000       0.55273274      -0.11548557       0.02997995
H        0.00000000       0.00000000       0.00000000      -0.31628346       1.08485972      -0.98440836
H        0.00000000       0.00000000       0.00000000       1.08684924       0.32829059      -0.87878269
H        0.00000000       0.00000000       0.00000000       0.25299182      -0.07045839       0.05987748
H        0.00000000       0.00000000       0.00000000      -0.09696769       0.45847087       0.63734572
H        0.00000000       0.00000000       0.00000000       0.16917284       0.28059281       0.31636338
H        0.00000000       0.00000000       0.00000000       0.98189208      -0.61995726      -0.19624909
O        0.00000000       0.00000000       0.00000000      -0.25346032       0.89667563      -0.70378307
O        0.00000000       0.00000000       0.00000000      -1.06756196      -1.41036441       1.94286151
O        0.00000000       0.00000000       0.00000000       0.04131979      -0.80233921      -0.68729352
O        0.00000000       0.00000000       0.00000000      -0.95452250       0.31540251      -0.17235965
13
Lattice="529.1772105638412 0.0 0.0 0.0 529.1772105638412 0.0 0.0 0.0 529.1772105638412" Properties=species:S:1:pos:R:3:forces_component_raw:R:3 ipi_comment="Step:         360  Bead:       0 forces_component_raw{ase}  cell{ase}" pbc="T T T"
H        0.00000000       0.00000000       0.00000000       0.55128156      -0.35498721      -0.55293428
H        0.00000000       0.00000000       0.00000000       0.35892957      -0.20680721      -0.53777509
H        0.00000000       0.00000000       0.00000000       0.31983483       0.53052887      -0.09177322
H        0.00000000       0.00000000       0.00000000      -0.87787886       1.10898790      -0.49468260
H        0.00000000       0.00000000       0.00000000       0.11525565       0.37847048      -0.76955719
H        0.00000000       0.00000000       0.00000000      -0.01989766      -0.02271012      -0.01167074
H        0.00000000       0.00000000       0.00000000      -0.25765787       0.79293386       0.87812001