13
Lattice="529.1772105638412 0.0 0.0 0.0 529.1772105638412 0.0 0.0 0.0 529.1772105638412" Properties=species:S:1:pos:R:3:forces_component_raw:R:3 ipi_comment="Step:           0  Bead:       0 forces_component_raw{ase}  cell{ase}" pbc="T T T"
H        0.00000000       0.00000000       0.00000000      -0.00621326      -0.12152896       0.01781550
H        0.00000000       0.00000000       0.00000000       0.59394172       0.54306011      -1.05744220
H        0.00000000       0.00000000       0.00000000       0.34181600       0.05294115      -0.26997238
H        0.00000000       0.00000000       0.00000000       0.49832649      -0.47575406       0.31839685
H        0.00000000       0.00000000       0.00000000       0.21643184       0.03518040       0.10370235
H        0.00000000       0.00000000       0.00000000      -0.03669212       0.23400933      -0.68196853
H        0.00000000       0.00000000       0.00000000       0.04465866      -0.61892050      -0.30069898
H        0.00000000       0.00000000       0.00000000       0.05832454       0.09183603      -0.17954679
H        0.00000000       0.00000000       0.00000000      -0.35180252      -0.10417073      -0.18418452
O        0.00000000       0.00000000       0.00000000      -1.42508528      -0.83447568       1.37363139
O        0.00000000       0.00000000       0.00000000      -0.28685741       0.35268350      -0.32036261
O        0.00000000       0.00000000       0.00000000      -0.01687058       0.75117697       0.86712337
O        0.00000000       0.00000000       0.00000000       0.37002194       0.09396244       0.31350656
13
Lattice="529.1772105638412 0.0 0.0 0.0 529.1772105638412 0.0 0.0 0.0 529.1772105638412" Properties=species:S:1:pos:R:3:forces_component_raw:R:3 ipi_comment="Step:          20  Bead:       0 forces_component_raw{ase}  cell{ase}" pbc="T T T"
H        0.00000000       0.00000000       0.00000000      -0.27500835      -0.13893756      -0.02417911
H        0.00000000       0.00000000       0.00000000       0.56727648       0.80387750      -0.19528843
H        0.00000000       0.00000000       0.00000000       0.13235995      -0.60940604       0.29965786
H        0.00000000       0.00000000       0.00000000       0.27627097      -0.90689014       0.02011236
H        0.00000000       0.00000000       0.00000000      -0.47294210      -0.32493741      -0.33089206
H        0.00000000       0.00000000       0.00000000      -0.14014089       0.73533334      -0.79388309
H        0.00000000       0.00000000       0.00000000       0.10878613      -0.24250177      -0.74161570
H        0.00000000       0.00000000       0.00000000       0.49688043      -0.13627887       0.82382995
H        0.00000000       0.00000000       0.00000000      -0.16706040      -0.06561301      -0.16311866
O        0.00000000       0.00000000       0.00000000      -0.93122834      -0.72255404       0.04004445
O        0.00000000       0.00000000       0.00000000       0.88535968       1.35057568       0.19631099
O        0.00000000       0.00000000       0.00000000      -0.01228278       0.21471600       1.55289112
O        0.00000000       0.00000000       0.00000000      -0.46827078       0.04261633      -0.68386968
13
Lattice="529.1772105638412 0.0 0.0 0.0 529.1772105638412 0.0 0.0 0.0 529.1772105638412" Properties=species:S:1:pos:R:3:forces_component_raw:R:3 ipi_comment="Step:          40  Bead:       0 forces_component_raw{ase}  cell{ase}" pbc="T T T"
H        0.00000000       0.00000000       0.00000000       0.35713378       0.32158360      -0.40639618
H        0.00000000       0.00000000       0.00000000      -0.08390209       0.26314504      -0.82451527
H        0.00000000       0.00000000       0.00000000      -0.08861305       0.45283894       0.05058302
H        0.00000000       0.00000000       0.00000000       0.50052305      -0.24913826       0.07152950
H        0.00000000       0.00000000       0.00000000      -0.50631247      -1.16428307      -0.35849921
H        0.00000000       0.00000000       0.00000000      -0.00271375       0.04389139      -0.61695593
H        0.00000000       0.00000000       0.00000000       0.27586078      -0.56319645      -0.39639842
H        0.00000000       0.00000000       0.00000000       0.37122824      -0.43673517       0.81490247
H        0.00000000       0.00000000       0.00000000       0.00861792      -0.08226073       0.01238636
O        0.00000000       0.00000000       0.00000000      -0.64030659      -1.56874769       0.84839204
O        0.00000000       0.00000000       0.00000000       0.55522454       1.28063665       0.20388119
O        0.00000000       0.00000000       0.00000000      -0.36707405       1.27011177       1.16804993
O        0.00000000       0.00000000       0.00000000      -0.37966630       0.43215397      -0.56695948
13
Lattice="529.1772105638412 0.0 0.0 0.0 529.1772105638412 0.0 0.0 0.0 529.1772105638412" Properties=species:S:1:pos:R:3:forces_component_raw:R:3 ipi_comment="Step:          60  Bead:       0 forces_component_raw{ase}  cell{ase}" pbc="T T T"
H        0.00000000       0.00000000       0.00000000      -0.88470992       0.74671636       0.11098569
H        0.00000000       0.00000000       0.00000000       0.44420974      -0.03008588      -0.79434128
H        0.00000000       0.00000000       0.00000000       0.22498240      -0.76309720      -0.02786217
H        0.00000000       0.00000000       0.00000000       0.02893211      -0.34291288      -0.05768898
H        0.00000000       0.00000000       0.00000000      -1.10881917      -0.94275077      -0.19135878
H        0.00000000       0.00000000       0.00000000      -0.09010274       0.14054063       0.00431316
H        0.00000000       0.00000000       0.00000000      -0.03796131       0.00591021      -0.14449198
H        0.00000000       0.00000000       0.00000000       0.72686419      -0.15505797       0.44747833
H        0.00000000       0.00000000       0.00000000      -0.06474544       0.26759714      -0.31278602
O        0.00000000       0.00000000       0.00000000       0.02966695      -0.12995638       0.34225732
O        0.00000000       0.00000000       0.00000000       1.47897794       1.31172774       0.30309059
O        0.00000000       0.00000000       0.00000000       0.18408142       0.05019317       0.01336616
O        0.00000000       0.00000000       0.00000000      -0.93137618      -0.15882415       0.30703796
13
Lattice="529.1772105638412 0.0 0.0 0.0 529.1772105638412 0.0 0.0 0.0 529.1772105638412" Properties=species:S:1:pos:R:3:forces_component_raw:R:3 ipi_comment="Step:          80  Bead:       0 forces_component_raw{ase}  cell{ase}" pbc="T T T"
H        0.00000000       0.00000000       0.00000000       0.57508209       1.41199960      -0.02895003
H        0.00000000       0.00000000       0.00000000       0.17401208       0.41397803      -0.04975668
H        0.00000000       0.00000000       0.00000000       0.13121002       0.94120743      -0.58592621
H        0.00000000       0.00000000       0.00000000      -0.04418630       0.64968324       0.13353041
H        0.00000000       0.00000000       0.00000000      -0.86147775      -1.21910895       0.04004307
H        0.00000000       0.00000000       0.00000000       0.33122343      -0.35372531      -0.16038497
H        0.00000000       0.00000000       0.00000000      -0.28458478       0.06707068       0.78350354
H        0.00000000       0.00000000       0.00000000      -0.26783586      -0.34295285       0.15851910
H        0.00000000       0.00000000       0.00000000       0.18403260      -0.24169469       0.30226204
O        0.00000000       0.00000000       0.00000000      -0.67190790      -1.61972286       0.33437200
O        0.00000000       0.00000000       0.00000000       1.16061616       0.25150923      -0.01338908
O        0.00000000       0.00000000       0.00000000      -0.28631208      -0.20630278      -0.65260301
O        0.00000000       0.00000000       0.00000000      -0.13987170       0.24805922      -0.26122019
13
Lattice="529.1772105638412 0.0 0.0 0.0 529.1772105638412 0.0 0.0 0.0 529.1772105638412" Properties=species:S:1:pos:R:3:forces_component_raw:R:3 ipi_comment="Step:         100  Bead:       0 forces_component_raw{ase}  cell{ase}" pbc="T T T"
H        0.00000000       0.00000000       0.00000000      -0.99036116       0.68375181      -0.18900030
H        0.00000000       0.00000000       0.00000000       0.35322439       0.05201682      -0.09335815
H        0.00000000       0.00000000       0.00000000       0.28554807      -1.29832635       0.20787361
H        0.00000000       0.00000000       0.00000000      -1.09291164       0.93436407       0.65258431
H        0.00000000       0.00000000       0.00000000      -0.57089359      -0.72834447       0.41903149
H        0.00000000       0.00000000       0.00000000      -0.14781732      -0.29577974       0.90522716
H        0.00000000       0.00000000       0.00000000      -0.91912781       0.74775038       0.59884649
H        0.00000000       0.00000000       0.00000000      -0.17841891       0.59527354       0.08379399
H        0.00000000       0.00000000       0.00000000      -0.34109989       0.36417001      -0.18485540
O        0.00000000       0.00000000       0.00000000       0.61922216       1.26411584      -0.27149136
O        0.00000000       0.00000000       0.00000000       1.41461661      -0.08005299      -1.06494659
O        0.00000000       0.00000000       0.00000000       1.06781974      -1.10738280      -1.40555512
O        0.00000000       0.00000000       0.00000000       0.50019935      -1.13155614       0.34184987
13
Lattice="529.1772105638412 0.0 0.0 0.0 529.1772105638412 0.0 0.0 0.0 529.1772105638412" Properties=species:S:1:pos:R:3:forces_component_raw:R:3 ipi_comment="Step:         120  Bead:       0 forces_component_raw{ase}  cell{ase}" pbc="T T T"
H        0.00000000       0.00000000       0.00000000       0.70569961       0.28706590      -0.11584006
H        0.00000000       0.00000000       0.00000000      -0.47931255      -0.28556560      -0.34526336
H        0.00000000       0.00000000       0.00000000       0.95910662       1.15785935      -0.31011642
H        0.00000000       0.00000000       0.00000000      -1.30559989       1.57422137       0.69444337
H        0.00000000       0.00000000       0.00000000       0.15071311      -0.74325166       0.24663258
H        0.00000000       0.00000000       0.00000000       0.50846827      -0.74332662       0.68310391
H        0.00000000       0.00000000       0.00000000      -0.81578942       0.38752882       1.20094557
H        0.00000000       0.00000000       0.00000000      -1.23361519       0.29128393      -0.21609561
H        0.00000000       0.00000000       0.00000000       0.27108481      -0.23618577       0.07883404
O        0.00000000       0.00000000       0.00000000      -0.89952520      -0.60215493       0.87236445
O        0.00000000       0.00000000       0.00000000       0.73138330      -1.13605285      -1.02430480
O        0.00000000       0.00000000       0.00000000       0.18800622      -0.00204561      -1.92164252
O        0.00000000       0.00000000       0.00000000       1.21938032       0.05062367       0.15693884
13
Lattice="529.1772105638412 0.0 0.0 0.0 529.1772105638412 0.0 0.0 0.0 529.1772105638412" Properties=species:S:1:pos:R:3:forces_component_raw:R:3 ipi_comment="Step:         140  Bead:       0 forces_component_raw{ase}  cell{ase}" pbc="T T T"
H        0.00000000       0.00000000       0.00000000      -0.77936250      -0.51416905      -0.16475530
H        0.00000000       0.00000000       0.00000000       0.26848668      -0.59907645       0.51520624
H        0.00000000       0.00000000       0.00000000      -0.09757431      -0.71111818       0.37016970
H        0.00000000       0.00000000       0.00000000      -1.77367674       1.11060566       0.73858268
H        0.00000000       0.00000000       0.00000000       0.24519691       0.40031893      -0.07499470
H        0.00000000       0.00000000       0.00000000       0.16052100      -0.62505360       1.08750303
H        0.00000000       0.00000000       0.00000000      -0.68065578       0.49984979       0.73792473
H        0.00000000       0.00000000       0.00000000       0.33636916       0.69145531      -0.41198775
H        0.00000000       0.00000000       0.00000000      -0.14335788       0.48831652      -0.29818365
O        0.00000000       0.00000000       0.00000000       0.56443106       1.52149704      -0.37203585
O        0.00000000       0.00000000       0.00000000       1.44577820      -1.34509129      -0.79375019
O        0.00000000       0.00000000       0.00000000       0.68414729       0.04712013      -1.76704768
O        0.00000000       0.00000000       0.00000000      -0.23030309      -0.96465481       0.43336874
13
Lattice="529.1772105638412 0.0 0.0 0.0 529.1772105638412 0.0 0.0 0.0 529.1772105638412" Properties=species:S:1:pos:R:3:forces_component_raw:R:3 ipi_comment="Step:         160  Bead:       0 forces_component_raw{ase}  cell{ase}" pbc="T T T"
H        0.00000000       0.00000000       0.00000000       0.49889512      -0.92215743      -0.30214945
H        0.00000000       0.00000000       0.00000000      -0.69274834       0.67721113       0.14972208
H        0.00000000       0.00000000       0.00000000      -0.33291218       0.63635001      -0.47505889
H        0.00000000       0.00000000       0.00000000      -1.41484327       1.83390118       0.12969631
H        0.00000000       0.00000000       0.00000000       0.59413141       0.53703228      -0.44798815
H        0.00000000       0.00000000       0.00000000       0.48655642      -0.91472197       0.68425356
H        0.00000000       0.00000000       0.00000000      -0.23922165       0.13185691       0.63405727
H        0.00000000       0.00000000       0.00000000      -0.36309303       0.15507046      -0.28588138
H        0.00000000       0.00000000       0.00000000      -0.57862319      -0.32207579       0.18363919
O        0.00000000       0.00000000       0.00000000       0.22038324      -0.45763939       0.82091826
O        0.00000000       0.00000000       0.00000000       0.94101873      -2.40063924       0.39055005
O        0.00000000       0.00000000       0.00000000      -0.30646160       0.85159897      -1.11624404
O        0.00000000       0.00000000       0.00000000       1.18691834       0.19421287      -0.36551481
13
Lattice="529.1772105638412 0.0 0.0 0.0 529.1772105638412 0.0 0.0 0.0 529.1772105638412" Properties=species:S:1:pos:R:3:forces_component_raw:R:3 ipi_comment="Step:         180  Bead:       0 forces_component_raw{ase}  cell{ase}" pbc="T T T"
H        0.00000000       0.00000000       0.00000000       0.80354655      -0.63763935       0.13446133
H        0.00000000       0.00000000       0.00000000       0.54053958      -0.23765359      -0.13639576
H        0.00000000       0.00000000       0.00000000      -0.07107275      -0.54091966       0.66210048
H        0.00000000       0.00000000       0.00000000      -1.14812280       0.97053528      -0.01415749
H        0.00000000       0.00000000       0.00000000       0.44590466       0.98480807      -0.35020467
H        0.00000000       0.00000000       0.00000000      -0.11975646       0.14026721      -0.09894331
H        0.00000000       0.00000000       0.00000000      -0.01795092       0.00617014      -0.09245580
H        0.00000000       0.00000000       0.00000000       0.48069563       0.08868178      -0.15466187
H        0.00000000       0.00000000       0.00000000      -0.49422374       0.15258177      -0.33367098
O        0.00000000       0.00000000       0.00000000      -1.50662868       0.98991365      -0.52272673
O        0.00000000       0.00000000       0.00000000       1.13974986      -1.77903044       0.28813398
O        0.00000000       0.00000000       0.00000000      -0.05101550       0.05079070       0.09314027
O        0.00000000       0.00000000       0.00000000      -0.00166544      -0.18850556       0.52538053
13
Lattice="529.1772105638412 0.0 0.0 0.0 529.1772105638412 0.0 0.0 0.0 529.1772105638412" Properties=species:S:1:pos:R:3:forces_component_raw:R:3 ipi_comment="Step:         200  Bead:       0 forces_component_raw{ase}  cell{ase}" pbc="T T T"
H        0.00000000       0.00000000       0.00000000      -0.47170117      -0.33874010       0.44414116
H        0.00000000       0.00000000       0.00000000      -0.67846201       0.15526469      -0.67287353
H        0.00000000       0.00000000       0.00000000      -0.17032562      -0.01872287      -0.42637872
H        0.00000000       0.00000000       0.00000000      -0.08617323       0.83070626      -0.15633360
H        0.00000000       0.00000000       0.00000000       0.78062371       0.75659705      -0.26103183
H        0.00000000       0.00000000       0.00000000      -0.17748618       0.18464656      -0.62910612
H        0.00000000       0.00000000       0.00000000       0.11477396      -0.21279610       0.12043851
H        0.00000000       0.00000000       0.00000000      -0.17931924      -0.37411409       0.33008038
H        0.00000000       0.00000000       0.00000000      -0.45082548      -0.33519048       0.19175744
O        0.00000000       0.00000000       0.00000000       0.78730221       0.19546772       0.32818729
O        0.00000000       0.00000000       0.00000000      -0.32121349      -1.73775015       0.53609093
O        0.00000000       0.00000000       0.00000000       0.10354409       0.21417957       0.39740833
O        0.00000000       0.00000000       0.00000000       0.74926245       0.68045193      -0.20238025
13
Lattice="529.1772105638412 0.0 0.0 0.0 529.1772105638412 0.0 0.0 0.0 529.1772105638412" Properties=species:S:1:pos:R:3:forces_component_raw:R:3 ipi_comment="Step:         220  Bead:       0 forces_component_raw{ase}  cell{ase}" pbc="T T T"
H        0.00000000       0.00000000       0.00000000       0.67772034       0.09518619      -0.32074670
H        0.00000000       0.00000000       0.00000000       0.87128136      -0.12916468      -0.30317532
H        0.00000000       0.00000000       0.00000000      -0.08930655       0.13049045      -0.08863837
H        0.00000000       0.00000000       0.00000000       0.04450133       0.18851314      -0.07821779
H        0.00000000       0.00000000       0.00000000      -0.10236997       0.03726136      -0.04137684
H        0.00000000       0.00000000       0.00000000      -0.39864272       0.35218205      -0.61025595
H        0.00000000       0.00000000       0.00000000       0.13769125      -0.10270241      -0.34298799
H        0.00000000       0.00000000       0.00000000       0.93351896      -0.42988158       0.25117784
H        0.00000000       0.00000000       0.00000000      -1.01940631       0.25866117      -0.35824501
O        0.00000000       0.00000000       0.00000000      -1.14217489       0.18515562      -0.06966350
O        0.00000000       0.00000000       0.00000000       0.34622113      -0.35117134       0.22841026
O        0.00000000       0.00000000       0.00000000       0.13284523      -0.19277768       1.03066618
O        0.00000000       0.00000000       0.00000000      -0.39187916      -0.04175230       0.70305321
13
Lattice="529.1772105638412 0.0 0.0 0.0 529.1772105638412 0.0 0.0 0.0 529.1772105638412" Properties=species:S:1:pos:R:3:forces_component_raw:R:3 ipi_comment="Step:         240  Bead:       0 forces_component_raw{ase}  cell{ase}" pbc="T T T"
H        0.00000000       0.00000000       0.00000000      -0.56024879      -0.07504991      -0.02226257
H        0.00000000       0.00000000       0.00000000      -0.69863038       0.90272319       0.18568350
H        0.00000000       0.00000000       0.00000000       0.62434605      -0.65038729      -0.40725495
H        0.00000000       0.00000000       0.00000000       0.69406346      -0.90511233       0.46658553
H        0.00000000       0.00000000       0.00000000      -0.42024810      -0.27028214       0.15464378
H        0.00000000       0.00000000       0.00000000      -0.38922809       0.30226137      -0.46338510
H        0.00000000       0.00000000       0.00000000       0.04760498      -0.11339763      -0.49070935
H        0.00000000       0.00000000       0.00000000      -0.07645481      -0.82113072       0.64402373
H        0.00000000       0.00000000       0.00000000      -0.08948486      -0.33094245       0.12349928
O        0.00000000       0.00000000       0.00000000       0.52798063       0.26748416      -0.38201375
O        0.00000000       0.00000000       0.00000000      -0.20962147       1.32202757      -0.51494212
O        0.00000000       0.00000000       0.00000000       0.36632540      -0.24498283       1.08994941
O        0.00000000       0.00000000       0.00000000       0.18359598       0.61678902      -0.38381738
13
Lattice="529.1772105638412 0.0 0.0 0.0 529.1772105638412 0.0 0.0 0.0 529.1772105638412" Properties=species:S:1:pos:R:3:forces_component_raw:R:3 ipi_comment="Step:         260  Bead:       0 forces_component_raw{ase}  cell{ase}" pbc="T T T"
H        0.00000000       0.00000000       0.00000000       0.61275407       0.70029557      -0.59345937
H        0.00000000       0.00000000       0.00000000       0.29160393      -0.38253194      -0.60825425
H        0.00000000       0.00000000       0.00000000       0.28052289       0.32162284      -0.05454965
H        0.00000000       0.00000000       0.00000000       1.31197744      -0.66235865       0.51261331
H        0.00000000       0.00000000       0.00000000      -0.01298890      -0.74252466       0.54953170
H        0.00000000       0.00000000       0.00000000       0.24773614      -0.30916520       0.31456254
H        0.00000000       0.00000000       0.00000000       0.11755192      -0.33658586      -0.30672575
H        0.00000000       0.00000000       0.00000000       0.36750900      -0.44293970       0.17586317
H        0.00000000       0.00000000       0.00000000       0.40651119       0.18501397      -0.24119663
O        0.00000000       0.00000000       0.00000000      -0.98806510      -0.86451710       1.05153574
O        0.00000000       0.00000000       0.00000000      -1.34896961       1.41904975      -1.08940731
O        0.00000000       0.00000000       0.00000000      -0.53364429       0.83254978       0.03562204
O        0.00000000       0.00000000       0.00000000      -0.75249868       0.28209119       0.25386445
13
Lattice="529.1772105638412 0.0 0.0 0.0 529.1772105638412 0.0 0.0 0.0 529.1772105638412" Properties=species:S:1:pos:R:3:forces_component_raw:R:3 ipi_comment="Step:         280  Bead:       0 forces_component_raw{ase}  cell{ase}" pbc="T T T"
H        0.00000000       0.00000000       0.00000000      -1.36664730       1.24014304       0.23215750
H        0.00000000       0.00000000       0.00000000       0.21486762       0.02884596      -0.10115853
H        0.00000000       0.00000000       0.00000000       0.55572635      -0.41203339      -0.04446406
H        0.00000000       0.00000000       0.00000000       0.22700200      -0.32561587       0.28645820
H        0.00000000       0.00000000       0.00000000      -0.41493591      -0.75372315       0.64149499
H        0.00000000       0.00000000       0.00000000       0.17082597       0.01810498       0.37727076
H        0.00000000       0.00000000       0.00000000       0.05006392      -0.20175100      -0.38340586
H        0.00000000       0.00000000       0.00000000      -0.07517330      -0.21450630       0.07347552
H        0.00000000       0.00000000       0.00000000       0.01589765      -0.15701238       0.06096280
O        0.00000000       0.00000000       0.00000000       0.58710760      -1.38252266       0.29539618
O        0.00000000       0.00000000       0.00000000       0.09025762       1.08086767      -0.94903837
O        0.00000000       0.00000000       0.00000000      -0.16152732       0.53470197      -0.12066580
O        0.00000000       0.00000000       0.00000000       0.10653509       0.54450111      -0.36848332
13
Lattice="529.1772105638412 0.0 0.0 0.0 529.1772105638412 0.0 0.0 0.0 529.1772105638412" Properties=species:S:1:pos:R:3:forces_component_raw:R:3 ipi_comment="Step:         300  Bead:       0 forces_component_raw{ase}  cell{ase}" pbc="T T T"
H        0.00000000       0.00000000       0.00000000      -0.26271388       0.49246212      -0.44926357
H        0.00000000       0.00000000       0.00000000       0.41028252      -0.03260822      -0.08545670
H        0.00000000       0.00000000       0.00000000       1.28008063       0.55308805      -0.42086045
H        0.00000000       0.00000000       0.00000000      -0.04730144       0.27591847      -0.33980914
H        0.00000000       0.00000000       0.00000000      -0.03389427      -0.71143766       0.67987425
H        0.00000000       0.00000000       0.00000000       0.01751483      -0.00160870       0.08575549
H        0.00000000       0.00000000       0.00000000      -0.01931258      -0.12346661      -0.36527287
H        0.00000000       0.00000000       0.00000000      -0.05263063       0.77842919      -0.11439548
H        0.00000000       0.00000000       0.00000000       0.55855848      -0.02724001      -0.11003971
O        0.00000000       0.00000000       0.00000000      -1.66046826      -1.34886274       1.29790061
O        0.00000000       0.00000000       0.00000000       0.05360245       0.24838995      -0.23211786
O        0.00000000       0.00000000       0.00000000       0.10258749       0.34475256       0.40410528
O        0.00000000       0.00000000       0.00000000      -0.34630535      -0.44781639      -0.35041985
13
Lattice="529.1772105638412 0.0 0.0 0.0 529.1772105638412 0.0 0.0 0.0 529.1772105638412" Properties=species:S:1:pos:R:3:forces_component_raw:R:3 ipi_comment="Step:         320  Bead:       0 forces_component_raw{ase}  cell{ase}" pbc="T T T"
H        0.00000000       0.00000000       0.00000000       0.27807620      -0.34444812      -0.00208151
H        0.00000000       0.00000000       0.00000000       0.16905727      -0.02261367      -0.04213153
H        0.00000000       0.00000000       0.00000000       0.96220147      -0.33123281      -0.11777692
H        0.00000000       0.00000000       0.00000000      -0.87012776       0.48484442      -0.30663896
H        0.00000000       0.00000000       0.00000000       0.06268789       0.42015852      -0.48567694
H        0.00000000       0.00000000       0.00000000      -0.08552196      -0.00019569      -0.05400379
H        0.00000000       0.00000000       0.00000000      -0.02679234      -0.00676860       0.05961144
H        0.00000000       0.00000000       0.00000000       0.03452964       1.05405194       0.22329289
H        0.00000000       0.00000000       0.00000000       0.79051406      -0.33696257      -0.23138183
O        0.00000000       0.00000000       0.00000000      -1.85188444       0.39634956       0.55666990
O        0.00000000       0.00000000       0.00000000       0.99851038      -0.82761464       0.85074666
O        0.00000000       0.00000000       0.00000000       0.08646134       0.06539120      -0.07022513
O        0.00000000       0.00000000       0.00000000      -0.54771174      -0.55095954      -0.38040428
13
Lattice="529.1772105638412 0.0 0.0 0.0 529.1772105638412 0.0 0.0 0.0 529.1772105638412" Properties=species:S:1:pos:R:3:forces_component_raw:R:3 ipi_comment="Step:         340  Bead:       0 forces_component_raw{ase}  cell{ase}" pbc="T T T"
H        0.00000000       0.00000000       0.00000000       0.25707194      -0.19404963       0.29729769
H        0.00000000       0.00000000       0.00000000      -0.98436064      -0.00650901      -0.06666441
H        0.00000000       0.00000000       0.00000000       0.56370281      -0.44879229       0.03895773
H        0.00000000       0.00000000       0.00000000      -0.49449728       1.09773871      -0.96428025
H        0.00000000       0.00000000       0.00000000       0.92704941       0.33011724      -0.84124663
H        0.00000000       0.00000000       0.00000000       0.15239581      -0.14721267      -0.05899026
H        0.00000000       0.00000000       0.00000000       0.03953818       0.23498724       0.63964888
H        0.00000000       0.00000000       0.00000000       0.22773380       0.31503257       0.14464850
H        0.00000000       0.00000000       0.00000000       1.07817966      -0.52288966      -0.35150492
O        0.00000000       0.00000000       0.00000000      -0.17056940       0.86827539      -0.24804822
O        0.00000000       0.00000000       0.00000000      -0.51616444      -1.31174778       1.79363075
O        0.00000000       0.00000000       0.00000000      -0.14240119      -0.41980071      -0.62146958
O        0.00000000       0.00000000       0.00000000      -0.93767866       0.20485060       0.23802073
13
Lattice="529.1772105638412 0.0 0.0 0.0 529.1772105638412 0.0 0.0 0.0 529.1772105638412" Properties=species:S:1:pos:R:3:forces_component_raw:R:3 ipi_comment="Step:         360  Bead:       0 forces_component_raw{ase}  cell{ase}" pbc="T T T"
H        0.00000000       0.00000000       0.00000000       0.39754273      -0.27631223      -0.67082996
H        0.00000000       0.00000000       0.00000000       0.37647434      -0.18021763      -0.87311107
H        0.00000000       0.00000000       0.00000000       0.13736418       0.65176963      -0.02529886
H        0.00000000       0.00000000       0.00000000      -1.02759747       1.02898516      -0.41551284
H        0.00000000       0.00000000       0.00000000       0.08420149       0.42509035      -0.87794856
H        0.00000000       0.00000000       0.00000000      -0.10421212      -0.07057027      -0.10085024
H        0.00000000       0.00000000       0.00000000      -0.08997831       0.55051214       0.90687135