13
# CELL(abcABC):  529.17722   529.17722   529.17722    90.00000    90.00000    90.00000  Step:           0  Bead:       0 forces{eV/ang}  cell{angstrom}
       H -4.68765e-01  1.79202e+00  2.63987e-01
       H  1.07005e-01  1.43823e-01  1.77113e-01
       H  2.25620e+00 -2.16284e-01  1.57836e-01
       H  7.58667e-01 -3.99104e-01  4.26033e-01
       H  7.91842e-01 -3.41594e-02  2.81963e-01
       H -5.08781e-02  5.17389e-01 -8.44020e-01
       H  1.22336e-01 -6.44215e-01 -3.52314e-01
       H  1.50523e-03  3.83226e-02 -1.31245e-01
       H -4.66299e-01 -1.83431e-01 -1.37073e-01
       O -2.15189e+00 -1.94133e+00 -2.34197e-01
       O -1.21891e+00  1.74533e-01 -5.13089e-01
       O -4.06491e-01  2.65751e-01  1.03967e+00
       O  7.25673e-01  4.86694e-01 -1.34661e-01
13
# CELL(abcABC):  529.17722   529.17722   529.17722    90.00000    90.00000    90.00000  Step:          20  Bead:       0 forces{eV/ang}  cell{angstrom}
       H  2.59673e-01 -2.62660e+00 -3.50347e-01
       H -3.19852e-01 -2.46444e-01  4.20246e-01
       H -3.71175e+00 -2.49515e-01  2.76767e-01
       H -2.66381e-01 -1.17104e+00 -1.24192e-01
       H -9.34997e-01 -1.15181e-01 -4.20550e-01
       H -1.88623e-01  5.02206e-01 -7.71726e-01
       H  9.44066e-02 -1.15393e-01 -7.31171e-01
       H  4.81089e-01 -1.93771e-01  1.13270e+00
       H -1.17656e-01  1.38103e-02 -1.84467e-01
       O  5.35343e-03 -8.24215e-02  4.80088e-01
       O  4.67713e+00  1.27238e+00  2.43664e-01
       O -1.55871e-01  2.42045e+00  1.63926e+00
       O  1.77482e-01  5.91528e-01 -1.61028e+00
13
# CELL(abcABC):  529.17722   529.17722   529.17722    90.00000    90.00000    90.00000  Step:          40  Bead:       0 forces{eV/ang}  cell{angstrom}
       H -2.20707e-01  1.12341e+00  1.68881e-01
       H -2.70155e-01 -1.88571e-01 -1.56198e-01
       H  1.71382e+00  7.20926e-04  4.01769e-02
       H  8.27145e-01 -8.28860e-02  1.49537e-01
       H -5.14072e-01 -1.52210e+00 -3.76350e-01
       H  1.16586e-01 -4.43234e-01  1.97565e-02
       H  2.90697e-01 -6.84466e-01 -2.47576e-01
       H  3.94782e-01 -4.04088e-01  1.10267e+00
       H -2.00367e-01 -1.05100e-01  4.07893e-02
       O -1.63411e+00 -1.64196e+00  3.35802e-01
       O -1.95596e-01  1.37076e+00  3.00630e-01
       O -5.66882e-01  1.51587e+00  2.36227e-01
       O  2.58860e-01  1.06165e+00 -1.61435e+00
13
# CELL(abcABC):  529.17722   529.17722   529.17722    90.00000    90.00000    90.00000  Step:          60  Bead:       0 forces{eV/ang}  cell{angstrom}
       H -5.05285e-02 -6.61685e-02  6.57086e-02
       H -5.40640e-02 -7.50225e-01  7.04042e-01
       H -5.35066e-01  1.95489e-01 -2.21445e-01
       H -2.65808e-01 -1.24425e-01 -5.95194e-02
       H -1.33344e+00 -1.80860e-01 -5.39189e-02
       H -9.57947e-02 -1.73633e-01  9.69857e-01
       H -7.26510e-02  1.79401e-01 -3.88867e-01
       H  3.81503e-01 -1.06567e-01  4.02958e-01
       H -1.58668e-01  2.15331e-02 -1.05556e-01
       O  1.32097e+00  1.52259e+00 -1.21806e+00
       O  1.69704e+00 -9.04697e-02  1.28801e-01
       O  1.09166e-01 -3.54222e-02 -7.11128e-01
       O -9.42656e-01 -3.91240e-01  4.87131e-01
13
# CELL(abcABC):  529.17722   529.17722   529.17722    90.00000    90.00000    90.00000  Step:          80  Bead:       0 forces{eV/ang}  cell{angstrom}
       H  1.18416e-01 -4.29398e-01 -1.04883e-01
       H -2.44418e-01  1.04719e+00 -6.48167e-02
       H  2.54609e+00  2.21675e-01  1.12453e-02
       H  2.85170e-01  1.02978e+00  2.41943e-01
       H -1.70179e-01 -8.67983e-01 -1.41102e-01
       H  7.14707e-01 -9.11743e-01  5.36675e-01
       H  2.41766e-01 -3.26325e-01  4.87703e-01
       H -8.25909e-01 -1.08345e-01 -2.55912e-01
       H  3.91923e-01 -2.55971e-01  3.19384e-01
       O -2.70388e+00  5.74938e-01 -8.88737e-01
       O  7.06741e-01 -2.83755e-01 -1.76265e-01
       O -1.00970e+00  9.30465e-01 -8.91770e-01
       O -5.07293e-02 -6.20533e-01  9.26535e-01
13
# CELL(abcABC):  529.17722   529.17722   529.17722    90.00000    90.00000    90.00000  Step:         100  Bead:       0 forces{eV/ang}  cell{angstrom}
       H  4.77424e-01  7.36207e-01  2.21461e-01
       H  1.36481e-01 -8.96351e-01  5.43380e-01
       H  3.28781e-01  2.84125e-01  3.03463e-01
       H -1.03659e+00  9.05896e-01  5.54740e-01
       H -4.51099e-01  2.22905e-01  9.55713e-02
       H  6.29645e-02  2.36416e-01  1.79432e+00
       H -3.52684e-01  4.61919e-01 -4.59856e-01
       H -5.86355e-01  1.08614e+00 -7.84353e-01
       H  7.16207e-02  4.81189e-01 -2.81909e-01
       O -5.76648e-01  9.03291e-01 -9.98607e-01
       O  1.51487e+00 -1.39596e+00 -6.65097e-01
       O  1.30591e-02 -1.47163e+00 -1.61319e+00
       O  3.98170e-01 -1.55415e+00  1.29008e+00
13
# CELL(abcABC):  529.17722   529.17722   529.17722    90.00000    90.00000    90.00000  Step:         120  Bead:       0 forces{eV/ang}  cell{angstrom}
       H -4.86659e-01 -8.25380e-01 -1.41059e-01
       H -2.35062e-01  1.22789e-01 -6.63730e-01
       H -5.63448e-01 -3.63673e-01 -5.77950e-01
       H -1.13681e+00  1.68765e+00  5.36799e-01
       H  8.46597e-01  5.48257e-02 -2.53872e-01
       H  1.17988e+00 -1.01508e+00  9.84925e-01
       H  1.78738e-01 -2.46190e-01  6.44610e-01
       H -1.41242e+00  6.98425e-01 -6.18786e-01
       H  7.29368e-01  1.76973e-02  2.88392e-01
       O  6.61464e-02 -5.52479e-01  1.59458e+00
       O  1.04712e+00 -1.43700e+00 -1.02920e-01
       O -1.31332e+00  2.37164e+00 -1.61358e+00
       O  1.09987e+00 -5.13230e-01 -7.74046e-02
13
# CELL(abcABC):  529.17722   529.17722   529.17722    90.00000    90.00000    90.00000  Step:         140  Bead:       0 forces{eV/ang}  cell{angstrom}
       H  3.29897e-01  5.62983e-01 -2.40943e-01
       H  2.12154e-02 -4.21238e-01  9.93059e-01
       H  3.80581e-01  8.02094e-01  7.12733e-01
       H -1.36436e+00  1.30178e+00  1.07847e+00
       H  2.84536e-01  1.31938e+00 -3.76661e-01
       H  3.94023e-01 -4.05136e-01  1.55136e+00
       H -5.72253e-01  7.35055e-01  1.91266e-01
       H  1.91132e-01  7.99314e-01 -1.32450e-01
       H  2.67602e-01  6.71379e-01  1.73558e-01
       O  4.17066e-01 -4.80056e-01 -9.98948e-01
       O  4.22880e-01 -3.14082e+00 -1.08241e+00
       O -1.87509e-01 -1.89845e-01 -1.50316e+00
       O -5.84814e-01 -1.55489e+00 -3.65869e-01
13
# CELL(abcABC):  529.17722   529.17722   529.17722    90.00000    90.00000    90.00000  Step:         160  Bead:       0 forces{eV/ang}  cell{angstrom}
       H -1.08836e-01  5.41295e-02  1.86730e-01
       H -4.87448e-01  1.07092e-01  1.18228e-01
       H  7.79857e-02 -6.95416e-01 -2.32529e-02
       H -4.78053e-01  1.96090e+00  2.00739e-01
       H  1.20977e+00  4.06188e-01 -6.21114e-01
       H  1.05940e+00 -9.17206e-01  7.56780e-01
       H -6.54425e-02  2.94178e-02  9.18771e-01
       H -1.54008e-01 -4.61450e-02  5.68014e-02
       H -2.78216e-02 -1.41622e-01  1.54702e-01
       O  3.34525e-01  1.88122e-01  4.04529e-01
       O -9.24171e-01 -1.89087e+00  3.07000e-01
       O -9.38173e-01  6.79738e-01 -1.81217e+00
       O  5.02278e-01  2.65669e-01 -6.47746e-01
13
# CELL(abcABC):  529.17722   529.17722   529.17722    90.00000    90.00000    90.00000  Step:         180  Bead:       0 forces{eV/ang}  cell{angstrom}
       H -7.69189e-02  1.26461e-01 -2.80198e-01
       H -9.15023e-02 -4.44784e-01 -1.90352e-01
       H -3.12117e-01  6.51613e-01 -5.06527e-01
       H -5.82371e-01  6.28812e-01  5.13384e-01
       H  7.92619e-02  1.21862e+00 -2.88033e-01
       H -1.87198e-01  1.73477e-01  1.04129e-01
       H -3.00075e-01  4.05054e-01  1.43947e-01
       H  6.23775e-01 -1.99468e-01  3.15273e-01
       H -4.01318e-01  2.65956e-01 -3.34112e-01
       O -2.02323e-01  7.75785e-01  7.95303e-01
       O  6.62226e-01 -2.41640e+00  8.04359e-02
       O  7.56723e-01 -1.20518e+00 -2.43838e-01
       O  3.18365e-02  2.00504e-02 -1.09412e-01
13
# CELL(abcABC):  529.17722   529.17722   529.17722    90.00000    90.00000    90.00000  Step:         200  Bead:       0 forces{eV/ang}  cell{angstrom}
       H  3.72117e-01 -8.41337e-01  5.68405e-01
       H  5.31814e-01  5.69608e-01  2.48895e-02
       H -3.32257e-01 -7.27875e-01  5.34528e-01
       H  3.62488e-01  9.78264e-02 -3.24349e-01
       H  4.19745e-01 -4.85743e-01 -1.14327e-01
       H -5.43903e-01  2.03822e-01 -1.23194e+00
       H  2.81366e-01  2.42950e-03  7.92786e-01
       H  5.08861e-01 -5.67746e-01  1.02540e+00
       H -9.40146e-01 -1.38682e-01  3.56120e-01
       O -4.58615e-01  1.34684e+00 -1.00556e+00
       O -4.51547e-01  7.72434e-01  1.58247e-01
       O  2.97371e-01 -4.60568e-01  2.29766e-01
       O -4.72930e-02  2.28994e-01 -1.01397e+00
13
# CELL(abcABC):  529.17722   529.17722   529.17722    90.00000    90.00000    90.00000  Step:         220  Bead:       0 forces{eV/ang}  cell{angstrom}
       H  6.07338e-01 -3.95829e-01 -5.27015e-01
       H -6.92566e-02  3.14824e-01 -5.82607e-01
       H -2.90626e-01  3.81041e-01 -2.28983e-01
       H  6.01933e-02 -6.42211e-01  8.53778e-02
       H -9.27375e-01 -3.42320e-01  5.58576e-01
       H -1.02373e+00  6.10215e-01 -1.19467e+00
       H  6.48470e-03  3.69570e-01  4.39716e-01
       H  1.09041e+00 -5.87575e-01  1.04676e+00
       H -1.99494e+00  5.79409e-01  1.44259e-02
       O  1.53643e-01  8.21935e-01 -1.51429e-01
       O  9.46166e-01  7.42260e-01 -5.10289e-01
       O  9.64148e-01 -9.82476e-01  9.27657e-01
       O  4.77549e-01 -8.68841e-01  1.22485e-01
13
# CELL(abcABC):  529.17722   529.17722   529.17722    90.00000    90.00000    90.00000  Step:         240  Bead:       0 forces{eV/ang}  cell{angstrom}
       H  8.66339e-02 -1.21930e+00  2.67009e-02
       H  1.52654e-01 -3.40311e-01 -1.64354e-01
       H  6.93593e-01 -1.83248e-01 -2.75057e-01
       H  5.93587e-01 -9.50201e-01 -8.30356e-02
       H -2.88768e-01 -6.92525e-01  8.02490e-01
       H -8.08358e-01  6.99741e-01 -1.30075e+00
       H  6.01949e-02  8.50489e-01  4.38343e-01
       H  4.50155e-01 -2.42698e-01  1.01161e+00
       H -1.28520e+00  3.65473e-01  6.49277e-01
       O -4.59567e-01  1.37756e-01  1.55529e-01
       O -4.72540e-02  1.75747e+00 -7.29308e-01
       O  3.00207e-01 -1.44681e-01  9.16794e-01
       O  5.52121e-01 -3.79680e-02 -1.44824e+00
13
# CELL(abcABC):  529.17722   529.17722   529.17722    90.00000    90.00000    90.00000  Step:         260  Bead:       0 forces{eV/ang}  cell{angstrom}
       H  3.10786e-02  3.47383e-01  1.18501e-01
       H -7.98403e-02  2.07882e-01  1.53453e-01
       H  2.31944e-01 -2.79756e-01  1.44071e-01
       H  9.27491e-02 -3.03126e-01  1.03064e-04
       H -1.95716e-01 -5.97341e-01  8.20799e-01
       H -2.80021e-01 -5.81525e-02 -4.47654e-01
       H  4.33777e-01  3.11694e-01  5.35070e-01
       H  1.71176e-01 -2.70543e-01  1.04157e-01
       H -7.09552e-01  2.28128e-01  1.53557e-01
       O -4.20935e-01 -7.94369e-01  2.13836e-01
       O  1.38159e-01  1.18351e+00 -9.56939e-01
       O -2.49228e-01 -2.37211e-01 -2.21357e-01
       O  8.36409e-01  2.61904e-01 -6.17597e-01
13
# CELL(abcABC):  529.17722   529.17722   529.17722    90.00000    90.00000    90.00000  Step:         280  Bead:       0 forces{eV/ang}  cell{angstrom}
       H -4.07819e-01  2.10622e-01 -5.20584e-01
       H -3.66649e-01 -8.75297e-01  9.32656e-01
       H -7.39939e-02  3.15833e-01 -3.16481e-01
       H -1.63671e-01  1.06069e+00 -4.30319e-01
       H -5.17778e-01 -6.62412e-01  8.26099e-01
       H  1.75166e-02  3.71895e-01 -2.08667e-01
       H -4.09211e-01  2.10754e-01 -3.37246e-01
       H -1.90321e-01 -1.57000e-01  1.99820e-01
       H -5.11304e-01  9.81395e-02  4.76463e-01
       O  1.17021e-01  4.68148e-01 -5.94174e-01
       O  8.13816e-01 -6.29471e-01 -1.18082e-01
       O  8.72962e-01 -6.03119e-01  7.85891e-01
       O  8.19431e-01  1.91214e-01 -6.95377e-01
13
# CELL(abcABC):  529.17722   529.17722   529.17722    90.00000    90.00000    90.00000  Step:         300  Bead:       0 forces{eV/ang}  cell{angstrom}
       H -1.97003e-01  1.76381e-01  6.02628e-01
       H  2.47271e-01 -1.09217e-01 -5.51851e-02
       H  3.71312e-01 -4.51689e-01  3.32069e-01
       H -6.60371e-01  1.35557e+00 -2.44816e-01
       H -4.30940e-01 -3.91897e-01  7.21968e-01
       H -6.27907e-01 -6.94258e-02 -3.15414e-01
       H  1.25715e-01  4.39610e-02  4.88965e-01
       H -2.85209e-01  3.59446e-01 -4.89396e-01
       H -2.70080e-02 -8.63321e-03 -1.53522e-01
       O -4.61734e-01 -5.24713e-02  4.64892e-02
       O  5.38184e-01 -6.95236e-01 -5.32470e-01
       O  8.10262e-01 -3.12434e-01 -6.19422e-01
       O  5.97428e-01  1.55646e-01  2.18106e-01
13
# CELL(abcABC):  529.17722   529.17722   529.17722    90.00000    90.00000    90.00000  Step:         320  Bead:       0 forces{eV/ang}  cell{angstrom}
       H  1.88890e-01 -3.03585e-01 -4.35811e-01
       H -2.39657e-01  2.13138e-01 -3.00926e-01
       H -6.71626e-02  4.62929e-01 -3.01813e-01
       H -3.25846e-01  1.40549e+00 -2.07115e-01
       H -2.12613e-01  1.60175e-01 -1.43318e-01
       H -3.81877e-02  8.06290e-02 -2.73646e-01
       H -2.83603e-01  7.44359e-02 -2.05031e-01
       H -2.75644e-01  9.37583e-01 -1.71392e-01
       H  7.22899e-01 -3.96072e-01 -6.55863e-01
       O  4.04723e-01 -4.81021e-02  3.03006e-01
       O -1.61651e-01 -1.83465e+00  7.35086e-01
       O  5.74513e-01 -2.22166e-01  7.97603e-01
       O -2.86661e-01 -5.29809e-01  8.59219e-01
13
# CELL(abcABC):  529.17722   529.17722   529.17722    90.00000    90.00000    90.00000  Step:         340  Bead:       0 forces{eV/ang}  cell{angstrom}
       H  8.78585e-02  2.17657e-01 -1.39207e-01
       H -1.97732e-01  2.33343e-02  2.34758e-01
       H  1.33934e-01 -3.23995e-01  2.86810e-01
       H -7.54932e-01  8.88797e-01 -3.16693e-01
       H  4.54542e-01  2.19670e-03 -4.09758e-01
       H  3.06659e-01 -2.48952e-01  2.37231e-01
       H  2.80601e-01  3.04947e-01  1.89917e-01
       H  6.72533e-02  3.00184e-01  1.09757e-01
       H  1.15993e+00 -3.13752e-01 -1.18850e+00
       O  4.13526e-01  5.73764e-01 -4.86938e-01
       O -5.64154e-01 -4.70351e-01  6.47418e-01
       O -1.62967e-01 -7.49395e-01 -3.02198e-01
       O -1.22452e+00 -2.04433e-01  1.13741e+00
13
# CELL(abcABC):  529.17722   529.17722   529.17722    90.00000    90.00000    90.00000  Step:         360  Bead:       0 forces{eV/ang}  cell{angstrom}
       H -5.96432e-01 -2.94374e-01  5.42454e-01
       H  3.02407e-01 -1.58435e-01 -2.70913e-02
       H  8.97142e-02  7.04019e-01 -4.64885e-01
       H -3.82820e-01  6.25457e-01 -1.25743e-01
       H -1.83053e-01  5.67257e-02 -1.22072e-01
       H  4.76121e-01  4.75208e-04  2.52608e-01
       H  1.82946e-01  7.95036e-01  1.49155e-01
       H -1.65194e-01 -1.56796e-01  1.08595e-01
       H  1.02475e+00 -4.53667e-01 -1.34041e+00
       O -4.38873e-01  3.46118e-01 -8.50044e-02
       O  5.51539e-01 -1.08837e+00  5.97946e-01
       O  1.27361e-02 -1.17484e+00 -5.53563e-01
       O -8.73837e-01  7.98653e-01  1.06801e+00
13
# CELL(abcABC):  529.17722   529.17722   529.17722    90.00000    90.00000    90.00000  Step:         380  Bead:       0 forces{eV/ang}  cell{angstrom}
       H  1.70221e-01  1.65091e-01 -1.30761e-01
       H -3.05200e-01 -3.48730e-01  1.24877e-01
       H -2.58658e-01 -6.21331e-01  3.20728e-01
       H -4.99537e-01  5.97584e-01 -9.95195e-02
       H  3.97037e-01  1.96420e-01 -7.81546e-01
       H -2.10936e-02 -1.00505e-01 -1.35002e-02
       H  1.39171e-01 -9.48390e-03  9.54748e-02
       H  4.29829e-01  2.74342e-01  1.31856e-01
       H  6.67204e-01 -1.08722e-01 -6.97643e-01
       O -7.44914e-01  8.02259e-02  2.82213e-01
       O  1.16879e+00 -4.21879e-01  4.10656e-01
       O -2.68680e-01  2.84811e-01 -1.01121e-01
       O -8.74174e-01  1.21775e-02  4.58285e-01
13
# CELL(abcABC):  529.17722   529.17722   529.17722    90.00000    90.00000    90.00000  Step:         400  Bead:       0 forces{eV/ang}  cell{angstrom}
       H -3.34754e-02  6.32952e-01 -1.43215e-01
       H -2.90017e-01  1.53578e-01  1.81868e-01
       H  3.13768e-01  2.80279e-01 -4.92087e-01
       H  3.91146e-01 -8.38355e-02 -4.61615e-02
       H -6.71965e-02  6.31259e-02  2.40238e-02
       H -4.49995e-01  2.04233e-01 -1.78859e-01
       H -8.45151e-02  6.56555e-02 -2.22236e-02
       H  6.29767e-02  7.59364e-02  5.75932e-01
       H -2.45173e-01 -4.78073e-01 -1.24043e-01
       O  2.02204e-01 -8.94838e-01  9.90156e-02
       O  1.80806e-01 -2.57532e-01  1.44665e-01
       O  1.65599e-02  2.95056e-01  1.27129e-01
       O  2.91083e-03 -5.65359e-02 -1.46044e-01
13
# CELL(abcABC):  529.17722   529.17722   529.17722    90.00000    90.00000    90.00000  Step:         420  Bead:       0 forces{eV/ang}  cell{angstrom}
       H  2.77523e-01 -1.44894e+00  3.25282e-01
       H  5.53740e-01  2.71451e-01 -2.52797e-01
       H -2.08545e-01  7.76504e-02  3.02850e-01
       H  4.74303e-01 -9.54666e-01  2.62112e-01
       H -2.72103e-01 -3.20665e-02  6.52321e-01
       H -7.98267e-01 -6.50566e-02 -4.39354e-01
       H -1.34298e-01 -1.93276e-01 -1.80908e-01
       H  2.43150e-01 -8.50570e-03 -3.92747e-01
       H  3.30209e-01  2.83015e-01  3.46199e-01
       O  2.55178e-01 -8.46326e-02 -3.60460e-01
       O -4.73276e-02  8.98594e-01 -1.05468e+00
       O  2.67104e-01  1.84483e+00  4.41126e-01
       O -9.40667e-01 -5.88398e-01  3.51053e-01
13
# CELL(abcABC):  529.17722   529.17722   529.17722    90.00000    90.00000    90.00000  Step:         440  Bead:       0 forces{eV/ang}  cell{angstrom}
       H  7.85431e-01 -1.36792e-01  3.11380e-01
       H  1.60086e-02  1.63513e-01 -2.97829e-01
       H -4.97618e-01 -1.51353e-01  5.50259e-01
       H  2.74397e-01 -9.50842e-01  3.82569e-01
       H -3.79481e-01 -1.05515e-01  6.58010e-01
       H -2.47362e-01 -1.05551e-01 -1.83646e-01
       H  1.18530e-01 -3.77104e-01 -5.51529e-02
       H -3.71605e-01 -1.43544e-01 -7.77528e-02
       H  1.13849e-01  2.29257e-01  2.20752e+00
       O  1.22722e-01 -4.94334e-02 -3.54988e-01
       O -1.75116e-01  1.31577e+00 -1.17085e+00
       O -8.36905e-02  3.83697e-01  3.97686e-02
       O  3.23935e-01 -7.21074e-02 -2.00930e+00
13
# CELL(abcABC):  529.17722   529.17722   529.17722    90.00000    90.00000    90.00000  Step:         460  Bead:       0 forces{eV/ang}  cell{angstrom}
       H -8.06851e-01  1.18724e+00 -2.62295e-01
       H  2.99774e-01  1.04199e+00 -4.70309e-01
       H  3.90565e-02  7.05117e-01 -5.44609e-01
       H  3.97611e-01 -5.99124e-02 -2.52100e-01
       H -1.38481e-01 -5.31182e-01  6.08579e-01
       H  1.52024e-01 -8.34587e-02  8.67220e-02
       H -2.91662e-01 -2.58144e-01 -4.68402e-01
       H -3.96404e-02 -6.71580e-03 -7.95455e-02
       H  6.93883e-01 -1.77926e-01  2.20602e+00
       O  1.02631e+00 -1.74992e+00  1.53892e-01
       O -6.95094e-01  3.39627e-01  7.53062e-02
       O  3.81484e-01  1.72015e-01  6.14289e-01
       O -1.01841e+00 -5.78727e-01 -1.66754e+00
13
# CELL(abcABC):  529.17722   529.17722   529.17722    90.00000    90.00000    90.00000  Step:         480  Bead:       0 forces{eV/ang}  cell{angstrom}
       H -3.44006e-01  1.89071e-01 -1.59413e-01
       H -1.00487e-01 -6.19895e-01  1.77666e-01
       H  1.03230e-01 -6.71130e-01  2.86685e-01
       H -8.87153e-01  2.99901e-01  1.23228e-01
       H -4.76984e-02  1.06770e-01 -1.22318e-01
       H  3.44547e-01 -2.80519e-01  1.59329e-01
       H -7.74027e-02 -5.73226e-01 -4.66034e-01
       H -2.39492e-01 -2.05185e-01  3.40668e-01
       H  7.35020e-01 -7.94395e-01  2.35427e+00
       O -1.01547e+00  9.26776e-01  1.35371e-01
       O  1.09051e+00  5.06769e-02 -2.89248e-01
       O  6.77792e-01 -1.45113e-01  5.51097e-01
       O -2.39392e-01  1.71627e+00 -3.09130e+00
13
# CELL(abcABC):  529.17722   529.17722   529.17722    90.00000    90.00000    90.00000  Step:         500  Bead:       0 forces{eV/ang}  cell{angstrom}
       H -2.54874e-01  7.52256e-01  3.07826e-01
       H -4.97829e-01 -5.05881e-02  1.75156e-01
       H  2.55350e-01 -1.91065e-02 -6.50595e-01
       H -1.36368e+00  8.94895e-01 -5.25843e-01
       H  5.30528e-01  8.04593e-01 -9.05543e-01
       H  4.51909e-01  6.62638e-01  8.89999e-01
       H -3.26841e-01 -1.04980e+00 -1.02133e+00
       H -1.04245e+00 -1.89602e-04 -2.76754e-01
       H  7.67210e-01 -1.82516e-01  3.96697e-01
       O  2.29376e-01 -1.60266e-01  2.75340e-01
       O  4.95268e-01 -1.46598e+00  1.72793e+00
       O  3.29969e-01 -6.13172e-01 -9.94453e-02
       O  4.26062e-01  4.27234e-01 -2.93442e-01
13
# CELL(abcABC):  529.17722   529.17722   529.17722    90.00000    90.00000    90.00000  Step:         520  Bead:       0 forces{eV/ang}  cell{angstrom}
       H  1.83867e-01 -5.19018e-01 -6.38871e-01
       H  6.06234e-01  2.81022e-01 -2.45112e-01
       H -2.71725e+00  6.91049e-01  9.80139e-01
       H -8.42943e-01  9.19552e-01 -9.80622e-01
       H  3.61396e-01  3.65937e-01 -3.55520e-01
       H  1.40510e+00 -7.76244e-01  9.57131e-01
       H  3.22824e-01 -1.21489e+00 -4.67795e-01
       H -1.15995e+00 -4.69673e-01  5.37923e-01
       H -5.02967e-01  4.13224e-01 -4.76988e-01
       O  5.74715e-02 -7.56148e-01  5.63452e-01
       O  2.84378e+00 -1.80459e+00  5.17074e-01
       O -1.99112e+00  2.70982e+00 -2.54452e-01
       O  1.43356e+00  1.59957e-01 -1.36361e-01
13
# CELL(abcABC):  529.17722   529.17722   529.17722    90.00000    90.00000    90.00000  Step:         540  Bead:       0 forces{eV/ang}  cell{angstrom}
       H  1.69325e-02  8.61652e-01  7.58981e-01
       H -1.60509e-01  1.44079e-01 -1.47860e-01
       H  3.77547e-01 -2.98388e-01  4.38800e-01
       H -1.58271e+00  5.17904e-01 -6.11495e-01
       H -6.24406e-01 -9.57451e-02  1.12254e-01
       H  1.23885e+00  2.21394e-01  1.61188e+00
       H -6.33951e-02 -5.01941e-01 -4.41927e-01
       H -1.32798e+00  2.98903e-02  3.36220e-01
       H -5.81612e-01  1.52047e+00 -1.11887e+00
       O  1.00511e+00 -1.62985e+00 -7.67556e-02
       O  1.46771e+00 -1.13647e-01  4.32781e-01
       O -1.80058e+00  4.99482e-01 -1.81228e+00
       O  2.03504e+00 -1.15531e+00  5.18279e-01
13
# CELL(abcABC):  529.17722   529.17722   529.17722    90.00000    90.00000    90.00000  Step:         560  Bead:       0 forces{eV/ang}  cell{angstrom}
       H -1.07970e+00  2.72801e-01 -2.66290e-01
       H  2.07611e-01 -2.27117e-01  7.14871e-02
       H  4.42396e-01 -1.35371e-01 -5.20060e-01
       H -2.49744e-01  4.00808e-01 -6.23275e-01
       H -8.13195e-01 -5.40537e-01  1.02117e+00
       H  5.83568e-01 -7.76190e-02  6.00749e-01
       H -4.70586e-01  2.55737e-01 -4.31808e-01
       H -6.12656e-01 -2.89316e-01  3.79385e-01
       H -9.92673e-01  1.32846e+00 -2.95370e-01
       O -2.28009e-01 -1.86261e-01  2.17136e-01
       O  9.12736e-01  1.34292e-01  9.10079e-03
       O  6.52689e-01 -3.66362e-01  2.00347e-01
       O  1.64756e+00 -5.69519e-01 -3.62571e-01
13
# CELL(abcABC):  529.17722   529.17722   529.17722    90.00000    90.00000    90.00000  Step:         580  Bead:       0 forces{eV/ang}  cell{angstrom}
       H  3.37774e-01  1.40357e-01 -1.53513e-01
       H -3.89030e-01 -1.12229e+00  8.08342e-01
       H  5.11539e-01 -7.03786e-01  7.11261e-02
       H  5.11027e-01  1.08838e-01 -1.58646e-01
       H -2.79452e-01 -9.78852e-01  1.20589e+00
       H  1.51704e-01 -6.54048e-01 -1.19031e-01
       H  2.06989e-01 -1.86298e-01  3.41781e-01
       H -8.34752e-01 -6.11326e-02  3.41137e-01
       H -6.92735e-01  1.55014e+00 -2.03171e-02
       O -1.01261e+00  1.91392e+00 -6.84362e-01
       O  7.82092e-02  1.23005e+00 -1.30362e+00
       O -9.59512e-02  3.50872e-01 -1.13958e-01
       O  1.50729e+00 -1.58777e+00 -2.14827e-01
13
# CELL(abcABC):  529.17722   529.17722   529.17722    90.00000    90.00000    90.00000  Step:         600  Bead:       0 forces{eV/ang}  cell{angstrom}
       H  7.81083e-01 -1.21032e-01  3.53612e-01
       H  5.28161e-01  1.21616e+00 -1.15974e+00
       H -5.83974e-01  6.81909e-01  1.04864e-01
       H  4.77978e-01 -7.97920e-01  5.46819e-01
       H -1.24012e+00 -4.63094e-01  6.96037e-01
       H -4.54789e-01  6.08924e-01 -3.70724e-01
       H -1.39789e-01  3.33701e-01  1.11957e-02
       H  2.77253e-01 -3.69653e-01 -1.11617e-02
       H -4.17178e-01  1.93397e-01  1.01477e-01
       O  2.48114e-02  8.16115e-01 -8.11575e-01
       O  7.21945e-01  9.36506e-01 -1.13464e+00
       O  6.94773e-01 -1.48350e+00  1.57335e-01
       O -6.70158e-01 -1.55151e+00  1.51650e+00
13
# CELL(abcABC):  529.17722   529.17722   529.17722    90.00000    90.00000    90.00000  Step:         620  Bead:       0 forces{eV/ang}  cell{angstrom}
       H -9.25203e-01 -1.90816e-01 -2.17653e-01
       H  1.01672e-01 -8.19564e-01  7.32713e-01
       H  2.28364e-01 -1.54756e-01  3.57309e-02
       H  6.96731e-01 -6.54501e-01  2.18967e-01
       H -2.33326e-01 -6.11572e-01  2.89012e-01
       H -1.59759e-01 -2.90571e-01 -8.05504e-01
       H  4.15364e-01 -1.86801e-01  5.37095e-01
       H  1.75225e+00  7.05011e-01 -3.64820e-01
       H  8.69808e-01 -8.52505e-01 -3.55031e-01
       O  5.60376e-01  1.20721e+00 -7.08040e-01
       O -8.94616e-01  1.37516e+00 -3.70114e-01
       O  4.01867e-01  6.94413e-02  4.14688e-01
       O -2.81353e+00  4.04261e-01  5.92955e-01
13
# CELL(abcABC):  529.17722   529.17722   529.17722    90.00000    90.00000    90.00000  Step:         640  Bead:       0 forces{eV/ang}  cell{angstrom}
       H  4.69886e-01 -3.16976e-01  3.28360e-01
       H -2.75391e-01  1.78019e-02  3.64387e-01
       H  8.81842e-01 -4.73474e-02 -4.58557e-01
       H  2.98566e-01 -8.45526e-01  2.81554e-01
       H  2.02813e-01  6.30891e-01 -3.56124e-01
       H -1.17602e+00  7.09159e-01 -8.96294e-01
       H -2.59821e-01  4.55367e-03 -2.78513e-01
       H  2.10555e+00 -8.02241e-01 -7.52071e-01
       H -4.16591e-01 -1.42862e+00  1.88297e-01
       O -1.16332e+00 -3.55084e-01  5.94096e-01
       O -3.47749e-01  4.20108e-01  7.87055e-02
       O  1.12030e+00 -4.59343e-01  8.47800e-01
       O -1.44007e+00  2.47262e+00  5.83586e-02
13
# CELL(abcABC):  529.17722   529.17722   529.17722    90.00000    90.00000    90.00000  Step:         660  Bead:       0 forces{eV/ang}  cell{angstrom}
       H -1.57557e-01  3.99144e-02 -1.86897e-01
       H  3.36967e-01 -1.42142e-01 -4.34318e-01
       H  2.12927e-02 -1.28910e-02 -8.03402e-02
       H -1.97701e-01  4.32706e-01 -7.15965e-02
       H  1.07716e+00  1.29253e+00 -8.08451e-01
       H -1.15521e+00 -3.33000e-02 -1.26320e+00
       H  2.66959e-01 -2.87846e-01 -1.73413e-01
       H  1.92988e+00  1.10228e+00 -6.38724e-01
       H  1.07885e+00 -3.88867e-01 -5.14083e-01
       O  1.19373e-02 -1.29573e+00  8.74413e-01
       O -1.33379e+00 -1.55669e+00  1.06240e+00
       O  9.80977e-01  4.91830e-01  1.63935e+00
       O -2.85976e+00  3.58204e-01  5.94864e-01
13
# CELL(abcABC):  529.17722   529.17722   529.17722    90.00000    90.00000    90.00000  Step:         680  Bead:       0 forces{eV/ang}  cell{angstrom}
       H -3.04113e-01 -1.77592e-01 -3.33425e-02
       H -3.91811e-01 -1.00393e+00  1.00138e+00
       H -2.07700e+00  1.30254e-01  8.74884e-01
       H -1.55152e-01  5.53612e-01 -1.60490e-01
       H  1.12110e+00  1.37564e+00 -9.99987e-01
       H -1.34162e+00  3.06577e-01 -7.98764e-01
       H -2.14702e-01  4.09216e-01  1.94291e-01
       H  1.64101e+00 -1.42278e+00 -6.67361e-01
       H -7.14060e-01 -4.10283e-01  5.09291e-01
       O  7.24511e-01  1.00552e+00 -1.17392e+00
       O  9.96637e-01 -2.15314e+00  4.68875e-01
       O  1.69523e+00 -5.92605e-01  7.91075e-01
       O -9.80032e-01  1.97951e+00 -5.92616e-03
13
# CELL(abcABC):  529.17722   529.17722   529.17722    90.00000    90.00000    90.00000  Step:         700  Bead:       0 forces{eV/ang}  cell{angstrom}
       H  2.30849e-01  3.24257e-01  5.08058e-01
       H  7.39980e-02  6.40117e-01 -3.34003e-02
       H  1.30477e+00 -1.38567e-01 -2.68929e-01
       H -1.47120e-01  6.10751e-01 -4.67789e-02
       H  7.99929e-01  9.36815e-01 -7.33224e-01
       H -2.93541e-01  8.85336e-02 -2.69123e-01
       H  5.85647e-02  1.39586e-01  5.79300e-01
       H  4.72511e-01  8.30900e-01 -7.23572e-01
       H  4.14625e-01  1.01769e+00 -7.08161e-01
       O -2.19183e+00 -7.07789e-01  9.34119e-01
       O -3.72079e-01 -1.70392e+00  6.04265e-01
       O  1.95526e-01 -7.24463e-01 -5.88285e-01
       O -5.46201e-01 -1.31391e+00  7.45731e-01
13
# CELL(abcABC):  529.17722   529.17722   529.17722    90.00000    90.00000    90.00000  Step:         720  Bead:       0 forces{eV/ang}  cell{angstrom}
       H -3.18835e-01  4.92233e-01 -6.09818e-01
       H -9.81160e-03 -6.99236e-01  2.16553e-01
       H  6.24259e-02 -1.25010e-01  1.54063e-01
       H  3.59925e-02 -2.37772e-01  6.95865e-02
       H -4.30926e-01  3.07618e-02  2.34834e-01
       H  1.02691e+00 -7.69642e-03  5.57132e-01
       H -2.78434e-01  6.32350e-01  5.51542e-01
       H -1.39100e-01 -7.70544e-01  7.14536e-01
       H -1.21723e+00  1.36568e+00  8.12460e-01
       O  1.03727e+00  4.08023e-01 -7.11439e-01
       O -6.06293e-01  2.03241e-01  5.92819e-02
       O -4.91698e-01 -9.30360e-01 -5.98858e-01
       O  1.32973e+00 -3.61674e-01 -1.44987e+00
13
# CELL(abcABC):  529.17722   529.17722   529.17722    90.00000    90.00000    90.00000  Step:         740  Bead:       0 forces{eV/ang}  cell{angstrom}
       H  5.95953e-01 -7.97130e-01  7.89777e-01
       H -1.56570e-01 -3.68652e-01  4.67035e-01
       H -4.15493e-01  3.15327e-02 -2.06355e-01
       H  3.96425e-01 -6.07024e-01 -2.38296e-01
       H -3.44532e-01 -8.29550e-01  5.79671e-01
       H  3.60849e-01  2.35657e-01  1.15711e-01
       H  1.53262e-01  1.27663e-01  5.97574e-01
       H -1.34580e+00  8.12523e-01  1.89670e+00
       H -5.50238e-01  1.67359e+00 -9.44852e-01
       O  1.95893e+00  1.81642e+00 -2.07842e+00
       O -1.20711e+00  1.43585e+00  3.11865e-01
       O -9.53295e-01  3.45339e-02 -1.23554e+00
       O  1.50761e+00 -3.56541e+00 -5.48740e-02
13
# CELL(abcABC):  529.17722   529.17722   529.17722    90.00000    90.00000    90.00000  Step:         760  Bead:       0 forces{eV/ang}  cell{angstrom}
       H -6.90953e-01  1.06212e+00 -5.91565e-01
       H -1.96969e-02  2.78655e-02  1.65839e-01
       H -4.69004e-01  1.68614e-01  1.75181e-01
       H  2.37301e-01 -7.70580e-01 -2.41399e-01
       H -2.46471e-01 -9.80207e-01  7.91354e-01