13
Lattice="529.1772105638412 0.0 0.0 0.0 529.1772105638412 0.0 0.0 0.0 529.1772105638412" Properties=species:S:1:pos:R:3 ipi_comment="Step:           0  Bead:       0 positions{ase}  cell{ase}" pbc="T T T"
H       -0.17162402       0.99555316       0.00473486
H       -0.53842585      -0.53583351       0.71223619
H        0.99859320      -0.10609560       0.09269124
H        2.95167916      -0.72799353       0.41628544
H        2.82399961       0.82332379       0.38936683
H       -0.06136288       2.93153118      -0.83804214
H       -0.21663176       3.15665531       0.67757749
H       -0.96483947      -1.54127569       2.74271215
H       -2.14579432      -1.86554619       1.81526214
O        0.00000000       0.00000000       0.00000000
O        2.48154349       0.00000000       0.00000000
O       -0.00570156       2.46453243       0.00000000
O       -1.28149480      -1.43613888       1.82246890
13
Lattice="529.1772105638412 0.0 0.0 0.0 529.1772105638412 0.0 0.0 0.0 529.1772105638412" Properties=species:S:1:pos:R:3 ipi_comment="Step:          20  Bead:       0 positions{ase}  cell{ase}" pbc="T T T"
H       -0.17040311       1.01077175       0.03185929
H       -0.51000164      -0.60917123       0.60851083
H        1.01089916      -0.04985790      -0.01479979
H        3.07268468      -0.72512069       0.21306899
H        2.89586609       0.76784871       0.42506403
H       -0.03655305       2.88445233      -0.84598053
H       -0.28119291       2.99051764       0.73829583
H       -0.96256481      -1.57607420       2.72263737
H       -2.10299459      -1.82967476       1.75620950
O        0.01357893       0.01733800       0.00862661
O        2.45214446      -0.02019839       0.01878813
O       -0.02771751       2.40736785      -0.02178553
O       -1.25878891      -1.35931534       1.84065256
13
Lattice="529.1772105638412 0.0 0.0 0.0 529.1772105638412 0.0 0.0 0.0 529.1772105638412" Properties=species:S:1:pos:R:3 ipi_comment="Step:          40  Bead:       0 positions{ase}  cell{ase}" pbc="T T T"
H       -0.25481271       0.94431801       0.03559718
H       -0.42059416      -0.56449215       0.75298426
H        1.00491637      -0.11664794      -0.03396243
H        3.02864639      -0.79679063       0.05452655
H        2.94745803       0.79089824       0.35023169
H       -0.08536049       2.97044616      -0.80414874
H       -0.43463376       2.97047561       0.68395845
H       -0.81153578      -1.64216569       2.64135145
H       -2.05832340      -1.76768183       1.71744239
O       -0.00363576      -0.01488032      -0.00201449
O        2.44993214      -0.02546949       0.04620451
O       -0.05110396       2.39204987      -0.03079239
O       -1.21597674      -1.30176174       1.84780883
13
Lattice="529.1772105638412 0.0 0.0 0.0 529.1772105638412 0.0 0.0 0.0 529.1772105638412" Properties=species:S:1:pos:R:3 ipi_comment="Step:          60  Bead:       0 positions{ase}  cell{ase}" pbc="T T T"
H       -0.16623252       0.87171067      -0.13213133
H       -0.53338025      -0.52801007       0.78851251
H        0.96721928      -0.09621165       0.06443234
H        3.03639834      -0.78877057      -0.03666773
H        3.09175038       0.75082592       0.20902275
H       -0.15883194       2.96956118      -0.83392948
H       -0.55416863       2.91047180       0.68449583
H       -0.69577832      -1.75997674       2.52816834
H       -1.97850861      -1.77772372       1.74791156
O       -0.03329384      -0.10020473      -0.01246141
O        2.45394022      -0.01929602       0.06042669
O       -0.08367028       2.43316675      -0.02518027
O       -1.16360136      -1.24882832       1.86224740
13
Lattice="529.1772105638412 0.0 0.0 0.0 529.1772105638412 0.0 0.0 0.0 529.1772105638412" Properties=species:S:1:pos:R:3 ipi_comment="Step:          80  Bead:       0 positions{ase}  cell{ase}" pbc="T T T"
H       -0.31425126       0.77617705      -0.13529840
H       -0.57032946      -0.65508398       0.69611911
H        0.94826999      -0.27001350       0.10335512
H        3.00859495      -0.81996590      -0.16829347
H        3.06419569       0.78196418       0.00501882
H       -0.26306653       3.05789846      -0.81623500
H       -0.70346936       2.91391464       0.57707879
H       -0.44526164      -1.74707188       2.34813223
H       -1.92838343      -1.76479892       1.73326778
O       -0.03525833      -0.14898468      -0.02436717
O        2.47108402      -0.02792593       0.07960844
O       -0.11028036       2.47580990      -0.04155124
O       -1.13880312      -1.21649254       1.91397524
13
Lattice="529.1772105638412 0.0 0.0 0.0 529.1772105638412 0.0 0.0 0.0 529.1772105638412" Properties=species:S:1:pos:R:3 ipi_comment="Step:         100  Bead:       0 positions{ase}  cell{ase}" pbc="T T T"
H       -0.17716945       0.82110656      -0.07239523
H       -0.56841359      -0.62085446       0.72987020
H        0.95535343      -0.13394989      -0.05562378
H        3.12759878      -0.75845808      -0.27244349
H        2.96629043       0.78933231      -0.23010286
H       -0.25750621       2.99211832      -0.90149324
H       -0.78049065       2.83416733       0.58718191
H       -0.40695664      -1.82453254       2.22528929
H       -1.86293417      -1.85068442       1.88629792
O       -0.05881703      -0.17185748      -0.05311954
O        2.52132961      -0.04007447       0.11659114
O       -0.15963692       2.49851783      -0.04598828
O       -1.12870103      -1.20261820       1.93831726
13
Lattice="529.1772105638412 0.0 0.0 0.0 529.1772105638412 0.0 0.0 0.0 529.1772105638412" Properties=species:S:1:pos:R:3 ipi_comment="Step:         120  Bead:       0 positions{ase}  cell{ase}" pbc="T T T"
H       -0.24553140       0.85740389      -0.14744992
H       -0.48703513      -0.53948656       0.72135356
H        0.92382737      -0.38062960      -0.07232625
H        3.23357578      -0.74050729      -0.24835417
H        2.77355721       0.80523388      -0.33528245
H       -0.41584007       2.99285906      -0.85911848
H       -0.82620923       2.87346142       0.56526452
H       -0.38798775      -1.78396089       2.33928280
H       -1.95932409      -1.71747036       1.92416771
O       -0.03273501      -0.12891519      -0.09918197
O        2.55962552      -0.04994711       0.11940344
O       -0.20420691       2.47099163      -0.02764855
O       -1.12414287      -1.21563761       1.96379742
13
Lattice="529.1772105638412 0.0 0.0 0.0 529.1772105638412 0.0 0.0 0.0 529.1772105638412" Properties=species:S:1:pos:R:3 ipi_comment="Step:         140  Bead:       0 positions{ase}  cell{ase}" pbc="T T T"
H       -0.09611011       0.92738634      -0.10409347
H       -0.50523833      -0.54188780       0.60911192
H        1.00768962      -0.21800359      -0.13832294
H        3.32213654      -0.67071068      -0.22480495
H        2.78429064       0.77271750      -0.39742636
H       -0.49401424       2.95162070      -0.84855849
H       -0.79580685       2.77487180       0.69563334
H       -0.64940680      -1.91910118       2.53774058
H       -1.97439292      -1.61100654       1.98605441
O        0.00151883      -0.10646895      -0.12740537
O        2.56130753      -0.03660049       0.09293317
O       -0.28341668       2.42026367      -0.02366112
O       -1.08024616      -1.20693883       2.00015158
13
Lattice="529.1772105638412 0.0 0.0 0.0 529.1772105638412 0.0 0.0 0.0 529.1772105638412" Properties=species:S:1:pos:R:3 ipi_comment="Step:         160  Bead:       0 positions{ase}  cell{ase}" pbc="T T T"
H       -0.25734097       0.92621926      -0.07073323
H       -0.31225266      -0.69460377       0.58223489
H        1.06918456      -0.19361112      -0.09459707
H        3.25649129      -0.77120935      -0.08984399
H        2.90465490       0.80206786      -0.33135961
H       -0.70774962       2.94401667      -0.78363673
H       -0.83314123       2.72358675       0.73308567
H       -0.63615368      -1.82121507       2.68468940
H       -1.98429639      -1.38759838       2.00295288
O        0.04414682      -0.08899216      -0.13907406
O        2.56373767      -0.01141202       0.04284447
O       -0.36001746       2.37222627      -0.03120272
O       -1.04241877      -1.20545820       2.03684865
13
Lattice="529.1772105638412 0.0 0.0 0.0 529.1772105638412 0.0 0.0 0.0 529.1772105638412" Properties=species:S:1:pos:R:3 ipi_comment="Step:         180  Bead:       0 positions{ase}  cell{ase}" pbc="T T T"
H       -0.33022380       0.82641059      -0.17664106
H       -0.33043344      -0.58948482       0.68418117
H        1.08719690      -0.03901710      -0.20006618
H        3.20479848      -0.76758326       0.00134343
H        3.12317090       0.74726676      -0.24849999
H       -0.86450728       2.83480645      -0.74241252
H       -0.84677230       2.63238191       0.80461932
H       -0.63824616      -1.73464949       2.70715208
H       -1.94740073      -1.38443946       2.09880268
O        0.09106978      -0.11580697      -0.09401396
O        2.56363286       0.01765904       0.00510848
O       -0.43766910       2.32590396      -0.03034041
O       -1.00895085      -1.16126858       2.01003281
13
Lattice="529.1772105638412 0.0 0.0 0.0 529.1772105638412 0.0 0.0 0.0 529.1772105638412" Properties=species:S:1:pos:R:3 ipi_comment="Step:         200  Bead:       0 positions{ase}  cell{ase}" pbc="T T T"
H       -0.19147990       0.80707257      -0.20059623
H       -0.23384403      -0.57008792       0.81824637
H        1.10816405      -0.11478604      -0.04162382
H        3.06833337      -0.81664257       0.07150545
H        3.22934221       0.73394710      -0.22204875
H       -0.99100253       2.87629400      -0.62810545
H       -0.88650303       2.58785100       0.85228675
H       -0.52548470      -1.67970048       2.63894925
H       -1.92571809      -1.27634055       1.97206107
O        0.09425215      -0.15713579      -0.05964405
O        2.59572544       0.04945445      -0.04367142
O       -0.51857408       2.30851722      -0.00828765
O       -0.97555774      -1.13572919       1.98146040
13
Lattice="529.1772105638412 0.0 0.0 0.0 529.1772105638412 0.0 0.0 0.0 529.1772105638412" Properties=species:S:1:pos:R:3 ipi_comment="Step:         220  Bead:       0 positions{ase}  cell{ase}" pbc="T T T"
H       -0.33136966       0.73466285      -0.07813906
H       -0.36694959      -0.66781665       0.73219305
H        1.10642400      -0.11465820      -0.02487185
H        3.13756821      -0.73259690       0.16322764
H        3.28563048       0.75084258      -0.30927518
H       -1.06007319       2.88985012      -0.57433732
H       -0.87438378       2.56487950       0.91592738
H       -0.62586380      -1.78962993       2.56496868
H       -1.88225788      -1.28474494       2.03589146
O        0.10483450      -0.17199985      -0.02172203
O        2.63094316       0.06702643      -0.08309728
O       -0.58375268       2.29985044       0.01311735
O       -0.93960398      -1.11736997       1.95116925
13
Lattice="529.1772105638412 0.0 0.0 0.0 529.1772105638412 0.0 0.0 0.0 529.1772105638412" Properties=species:S:1:pos:R:3 ipi_comment="Step:         240  Bead:       0 positions{ase}  cell{ase}" pbc="T T T"
H       -0.30554849       0.76184853       0.00441037
H       -0.21673983      -0.80650810       0.67473214
H        1.07337139      -0.00073970      -0.00771298
H        3.30515501      -0.54008820       0.22415109
H        3.22221457       0.79762419      -0.50708428
H       -1.10038650       2.81903294      -0.60571696
H       -0.87937535       2.62299398       0.92961429
H       -0.51795336      -1.87588529       2.41525906
H       -1.90167006      -1.23431826       1.98163758
O        0.09686070      -0.16210191      -0.02729997
O        2.67317588       0.08896607      -0.10054321
O       -0.64039833       2.27603893       0.03918296
O       -0.93550998      -1.13756662       1.96805532
13
Lattice="529.1772105638412 0.0 0.0 0.0 529.1772105638412 0.0 0.0 0.0 529.1772105638412" Properties=species:S:1:pos:R:3 ipi_comment="Step:         260  Bead:       0 positions{ase}  cell{ase}" pbc="T T T"
H       -0.32542292       0.76757263       0.00563535
H       -0.26861766      -0.61344220       0.75955255
H        1.11851603      -0.12019158      -0.09525542
H        3.43504308      -0.35173791       0.27046736
H        3.06272199       0.85347564      -0.68794285
H       -1.18447199       2.70328837      -0.65053872
H       -0.94880800       2.73026656       0.89233136
H       -0.58558354      -1.97323587       2.41397262
H       -1.91561419      -1.28713989       2.08953839
O        0.12528188      -0.11999489      -0.04543935
O        2.71891708       0.11502136      -0.12365129
O       -0.69113706       2.24694922       0.07305797
O       -0.94058029      -1.18702831       1.98245457
13
Lattice="529.1772105638412 0.0 0.0 0.0 529.1772105638412 0.0 0.0 0.0 529.1772105638412" Properties=species:S:1:pos:R:3 ipi_comment="Step:         280  Bead:       0 positions{ase}  cell{ase}" pbc="T T T"
H       -0.06544519       0.88355996      -0.06552696
H       -0.30117742      -0.56173375       0.70346490
H        1.14492057      -0.11129585      -0.07448826
H        3.56569954      -0.18548127       0.23392856
H        3.07222634       0.83600112      -0.81113727
H       -1.36048185       2.53489757      -0.61818568
H       -1.01713471       2.70813180       0.92095131
H       -0.63556131      -2.11837847       2.35535083
H       -1.91781467      -1.25361597       2.11883534
O        0.16010731      -0.05562955      -0.03867986
O        2.75200225       0.13710162      -0.17208520
O       -0.75583754       2.24031731       0.09845461
O       -0.94993130      -1.26830553       2.01351106
13
Lattice="529.1772105638412 0.0 0.0 0.0 529.1772105638412 0.0 0.0 0.0 529.1772105638412" Properties=species:S:1:pos:R:3 ipi_comment="Step:         300  Bead:       0 positions{ase}  cell{ase}" pbc="T T T"
H       -0.10086953       0.94282551       0.05454666
H       -0.28632445      -0.55319428       0.65426601
H        1.17946429      -0.15590597      -0.03594527
H        3.52062622      -0.28502935       0.20937170
H        3.10872777       0.81355834      -0.89790186
H       -1.51057533       2.51719027      -0.52853032
H       -0.99524094       2.69588755       0.95885858
H       -0.80225214      -2.30313727       2.17588335
H       -1.89831433      -1.20810615       2.22699981
O        0.22092215       0.00089673      -0.02230105
O        2.77023617       0.16654928      -0.22602933
O       -0.83133532       2.23276285       0.10968778
O       -0.93647187      -1.32984018       2.03641857
13
Lattice="529.1772105638412 0.0 0.0 0.0 529.1772105638412 0.0 0.0 0.0 529.1772105638412" Properties=species:S:1:pos:R:3 ipi_comment="Step:         320  Bead:       0 positions{ase}  cell{ase}" pbc="T T T"
H       -0.25454545       0.87269776      -0.00263764
H       -0.15393980      -0.60214961       0.75849745
H        1.20945417       0.06595999      -0.05678075
H        3.45926524      -0.39833840       0.14435989
H        3.27809220       0.69863801      -0.90474235
H       -1.62739135       2.56754430      -0.44488256
H       -0.97894292       2.69345248       0.96722333
H       -0.99643338      -2.35404970       1.90993943
H       -1.81005102      -1.05445338       2.29005532
O        0.24158990      -0.01855940       0.03899746
O        2.76605118       0.18862351      -0.27031865
O       -0.88126049       2.26488953       0.09974122
O       -0.89737588      -1.36617347       2.03921709
13
Lattice="529.1772105638412 0.0 0.0 0.0 529.1772105638412 0.0 0.0 0.0 529.1772105638412" Properties=species:S:1:pos:R:3 ipi_comment="Step:         340  Bead:       0 positions{ase}  cell{ase}" pbc="T T T"
H       -0.32002842       0.79332121       0.02323273
H        0.03737504      -0.62117514       0.89983483
H        1.19603248       0.11020478      -0.10817395
H        3.35471658      -0.49199728       0.16942914
H        3.25009630       0.62684933      -0.99497823
H       -1.74663084       2.59971285      -0.37080758
H       -0.99360067       2.69601296       0.95159262
H       -1.19543569      -2.27426806       1.73975078
H       -1.68931004      -0.92121213       2.32928192
O        0.23932279      -0.04560402       0.11428790
O        2.78369290       0.19013223      -0.29746485
O       -0.92326235       2.31525030       0.07275854
O       -0.85611326      -1.39277170       2.01943343
13
Lattice="529.1772105638412 0.0 0.0 0.0 529.1772105638412 0.0 0.0 0.0 529.1772105638412" Properties=species:S:1:pos:R:3 ipi_comment="Step:         360  Bead:       0 positions{ase}  cell{ase}" pbc="T T T"
H       -0.20019456       0.84464351       0.15925905
H       -0.12479249      -0.62013264       0.96311905
H        1.22255431      -0.10296385      -0.06970702
H        3.36587966      -0.49212957       0.10604435
H        3.30339967       0.43817794      -1.07995198
H       -1.80393690       2.61529588      -0.34599332
H       -0.99551611       2.70228890       0.94979629
H       -1.25241132      -2.24036310       1.71300698
H       -1.51045748      -0.84163456       2.40492474
O        0.25936876      -0.05721406       0.17395033
O        2.76422911       0.20623603      -0.32193778
O       -0.97104376       2.33924277       0.06844973
O       -0.81592699      -1.40775834       1.97838793
13
Lattice="529.1772105638412 0.0 0.0 0.0 529.1772105638412 0.0 0.0 0.0 529.1772105638412" Properties=species:S:1:pos:R:3 ipi_comment="Step:         380  Bead:       0 positions{ase}  cell{ase}" pbc="T T T"
H       -0.09237622       0.90019064       0.06782141
H       -0.20282347      -0.72375477       0.81897739
H        1.27632906      -0.01338040       0.06363493
H        3.31937530      -0.52221893       0.11466319
H        3.10984022       0.34147253      -1.20133028
H       -1.81977087       2.55271159      -0.35348712
H       -1.06217402       2.80677235       0.91406067
H       -1.33933724      -2.20566805       1.76961661
H       -1.33804989      -0.87151379       2.53370918
O        0.27045647      -0.03266864       0.22190639
O        2.74532815       0.19757136      -0.33153113
O       -0.99068294       2.32864697       0.08180132
O       -0.77880270      -1.41061314       1.93126235
13
Lattice="529.1772105638412 0.0 0.0 0.0 529.1772105638412 0.0 0.0 0.0 529.1772105638412" Properties=species:S:1:pos:R:3 ipi_comment="Step:         400  Bead:       0 positions{ase}  cell{ase}" pbc="T T T"
H       -0.37498303       0.80389082       0.10829846
H       -0.08673499      -0.63645024       0.88007837
H        1.27320664       0.04282273       0.03651067
H        3.41935137      -0.50199426      -0.04877158
H        2.88473704       0.22898316      -1.30723381
H       -1.77572776       2.41788834      -0.42385869
H       -1.03655084       2.93076096       0.85633498
H       -1.36527568      -2.18431195       1.82571008
H       -1.06896244      -0.85808366       2.63005859
O        0.27715842       0.05859841       0.22683712
O        2.72118613       0.15701516      -0.34243405
O       -0.99152907       2.30338542       0.11743834
O       -0.76165358      -1.43473273       1.91234213
13
Lattice="529.1772105638412 0.0 0.0 0.0 529.1772105638412 0.0 0.0 0.0 529.1772105638412" Properties=species:S:1:pos:R:3 ipi_comment="Step:         420  Bead:       0 positions{ase}  cell{ase}" pbc="T T T"
H       -0.20579240       1.06571350       0.22922985
H       -0.04579324      -0.57080851       0.86656691
H        1.24170669       0.24882690      -0.01476810
H        3.42398088      -0.54526913      -0.17432416
H        2.68309609       0.19794270      -1.36490254
H       -1.74757253       2.47497248      -0.41121249
H       -1.02886158       3.00995141       0.81261205
H       -1.36231095      -2.17617186       1.86348513
H       -0.91992986      -1.06044857       2.77970149
O        0.25002797       0.13668144       0.20926561
O        2.72798298       0.10720040      -0.37128889
O       -1.00340747       2.26886220       0.15849285
O       -0.74011839      -1.45375515       1.91587043
13
Lattice="529.1772105638412 0.0 0.0 0.0 529.1772105638412 0.0 0.0 0.0 529.1772105638412" Properties=species:S:1:pos:R:3 ipi_comment="Step:         440  Bead:       0 positions{ase}  cell{ase}" pbc="T T T"
H       -0.22512670       1.14774536       0.23984148
H       -0.22838216      -0.47060235       0.77536193
H        1.26036768      -0.01380422       0.07571493
H        3.40477632      -0.58585812      -0.21694922
H        2.75428950       0.09819704      -1.39746809
H       -1.61422415       2.48769938      -0.54805806
H       -0.90659684       3.01086841       0.83842459
H       -1.32219232      -2.17625382       1.75152250
H       -0.76686924      -1.29049452       2.85240765
O        0.24837250       0.20292929       0.18545537
O        2.73506137       0.09027102      -0.38868401
O       -1.04061813       2.26218999       0.19973613
O       -0.72833560      -1.46885534       1.92941555
13
Lattice="529.1772105638412 0.0 0.0 0.0 529.1772105638412 0.0 0.0 0.0 529.1772105638412" Properties=species:S:1:pos:R:3 ipi_comment="Step:         460  Bead:       0 positions{ase}  cell{ase}" pbc="T T T"
H       -0.05289393       1.13881606      -0.01750619
H       -0.26479646      -0.35556444       0.84970453
H        1.28009971       0.12005058       0.01416842
H        3.32790443      -0.58780155      -0.00727583
H        2.89760825       0.13296850      -1.39868543
H       -1.46266588       2.72208922      -0.53878157
H       -0.92389122       3.08947125       0.80556856
H       -1.34277108      -2.16566047       1.67950083
H       -0.63800714      -1.55506434       2.85545546
O        0.23724552       0.22248524       0.18816047
O        2.73148336       0.05814695      -0.40614654
O       -1.06854472       2.26890252       0.23972786
O       -0.71497215      -1.48390494       1.91228663
13
Lattice="529.1772105638412 0.0 0.0 0.0 529.1772105638412 0.0 0.0 0.0 529.1772105638412" Properties=species:S:1:pos:R:3 ipi_comment="Step:         480  Bead:       0 positions{ase}  cell{ase}" pbc="T T T"
H       -0.30636369       1.07881455       0.22765404
H        0.01677759      -0.31816717       0.99395528
H        1.24267763       0.12365153      -0.08356886
H        3.37018007      -0.51172254       0.05365397
H        3.20591116       0.10661365      -1.29257823
H       -1.42092515       2.73233342      -0.58511718
H       -0.75849099       3.00286024       0.89127007
H       -1.38428528      -2.12911305       1.61853425
H       -0.47449133      -1.69602227       2.80363796
O        0.25489913       0.22876086       0.18606837
O        2.71087769       0.03014006      -0.42597354
O       -1.11252574       2.31290967       0.24670055
O       -0.71027713      -1.49672668       1.90295809
13
Lattice="529.1772105638412 0.0 0.0 0.0 529.1772105638412 0.0 0.0 0.0 529.1772105638412" Properties=species:S:1:pos:R:3 ipi_comment="Step:         500  Bead:       0 positions{ase}  cell{ase}" pbc="T T T"
H       -0.28411984       1.01765818       0.20109396
H        0.07042420      -0.56484286       0.77860307
H        1.17617679       0.35579195      -0.20067761
H        3.29634741      -0.44060755       0.22964865
H        3.17984930       0.18006772      -1.25529603
H       -1.40675771       2.84601724      -0.55728913
H       -0.69427428       3.06625100       0.82745223
H       -1.35094941      -2.15205342       1.62264321
H       -0.33825685      -1.89736660       2.72536471
O        0.26790692       0.23631161       0.20437398
O        2.69899198      -0.00934219      -0.44238806
O       -1.15116273       2.34256253       0.26848392
O       -0.68268216      -1.49581317       1.89540624
13
Lattice="529.1772105638412 0.0 0.0 0.0 529.1772105638412 0.0 0.0 0.0 529.1772105638412" Properties=species:S:1:pos:R:3 ipi_comment="Step:         520  Bead:       0 positions{ase}  cell{ase}" pbc="T T T"
H       -0.29271030       1.00201686       0.17723083
H       -0.07236059      -0.52429893       0.75118170
H        1.28761116       0.14682757      -0.04565129
H        3.30700519      -0.27710361       0.28268430
H        3.25066967       0.20432916      -1.19498827
H       -1.50744917       2.82555843      -0.56126060
H       -0.67600072       3.06188460       0.83880741
H       -1.34557691      -2.09295514       1.57171620
H       -0.19658917      -1.97303419       2.64462564
O        0.28666231       0.23424122       0.19371390
O        2.66985840      -0.03744646      -0.46257340
O       -1.17894424       2.36817355       0.29231875
O       -0.65121094      -1.48887485       1.89656988
13
Lattice="529.1772105638412 0.0 0.0 0.0 529.1772105638412 0.0 0.0 0.0 529.1772105638412" Properties=species:S:1:pos:R:3 ipi_comment="Step:         540  Bead:       0 positions{ase}  cell{ase}" pbc="T T T"
H       -0.15099268       1.08376423       0.12697584
H       -0.05084305      -0.35452847       0.94637904
H        1.25213149       0.18842708      -0.14921398
H        3.34729451      -0.16555262       0.27411716
H        3.17844573       0.20696697      -1.26191517
H       -1.53242059       2.85521064      -0.51303048
H       -0.77812052       3.14663398       0.80913475
H       -1.39182386      -2.04106097       1.65559319
H       -0.05647345      -2.08677603       2.48443663
O        0.27515087       0.22192272       0.18241372
O        2.67131572      -0.06312955      -0.47781316
O       -1.20053256       2.36985439       0.33341247
O       -0.62351243      -1.48152708       1.88780420
13
Lattice="529.1772105638412 0.0 0.0 0.0 529.1772105638412 0.0 0.0 0.0 529.1772105638412" Properties=species:S:1:pos:R:3 ipi_comment="Step:         560  Bead:       0 positions{ase}  cell{ase}" pbc="T T T"
H       -0.25819967       1.10095957       0.23410671
H        0.00676315      -0.42649670       0.89914221
H        1.22106321       0.11382023      -0.14131672
H        3.39802143      -0.10560286       0.23316835
H        3.10402697       0.30579697      -1.26847955
H       -1.63729670       2.70511927      -0.49486282
H       -0.90422718       3.14547737       0.90317047
H       -1.43611609      -1.92728008       1.65389079
H        0.01608580      -2.15844531       2.31691232
O        0.24742428       0.22984289       0.17271294
O        2.67275290      -0.08108480      -0.47129735
O       -1.18887330       2.38325700       0.34459087
O       -0.58953526      -1.47987092       1.88212586
13
Lattice="529.1772105638412 0.0 0.0 0.0 529.1772105638412 0.0 0.0 0.0 529.1772105638412" Properties=species:S:1:pos:R:3 ipi_comment="Step:         580  Bead:       0 positions{ase}  cell{ase}" pbc="T T T"
H       -0.31848583       1.10481982       0.26601497
H       -0.07724109      -0.54524285       0.71451404
H        1.19054770       0.30383210      -0.06933511
H        3.41223217      -0.15496298       0.22614559
H        3.09600930       0.34968655      -1.24444756
H       -1.74492263       2.73293789      -0.38260486
H       -1.05357655       3.18934141       0.87455226
H       -1.44664509      -1.82132535       1.67066413
H       -0.06341472      -2.28647912       2.18633905
O        0.21388286       0.22977012       0.17697325
O        2.68872700      -0.09037401      -0.46476812
O       -1.16668706       2.37539009       0.35111723
O       -0.56166823      -1.47015582       1.87072536
13
Lattice="529.1772105638412 0.0 0.0 0.0 529.1772105638412 0.0 0.0 0.0 529.1772105638412" Properties=species:S:1:pos:R:3 ipi_comment="Step:         600  Bead:       0 positions{ase}  cell{ase}" pbc="T T T"
H       -0.36636804       1.16023611       0.32836132
H       -0.07554551      -0.46486190       0.82665063
H        1.15878062       0.22993691      -0.01776928
H        3.36433402      -0.21988160       0.23772172
H        3.19320814       0.37192627      -1.19391603
H       -1.85344301       2.54589279      -0.31369998
H       -1.03019212       3.09532189       0.98351579
H       -1.47836692      -1.67270104       1.72659417
H       -0.05209156      -2.28958112       2.05633387
O        0.17690110       0.25166043       0.17854974
O        2.70394653      -0.10072559      -0.47948054
O       -1.16515457       2.36751404       0.36501283
O       -0.53298414      -1.46648993       1.84527131
13
Lattice="529.1772105638412 0.0 0.0 0.0 529.1772105638412 0.0 0.0 0.0 529.1772105638412" Properties=species:S:1:pos:R:3 ipi_comment="Step:         620  Bead:       0 positions{ase}  cell{ase}" pbc="T T T"
H       -0.20054013       1.22689452       0.23712206
H       -0.11684503      -0.39194202       0.89446334
H        1.11738058       0.15473473      -0.11845246
H        3.32988616      -0.22910296       0.25450859
H        3.23854389       0.42959866      -1.11933131
H       -1.99389400       2.46691881      -0.12108952
H       -1.22598678       3.11348682       0.97386025
H       -1.46919878      -1.75653059       1.84999128
H       -0.02490392      -2.28515390       1.86931346
O        0.16632335       0.26268841       0.19627929
O        2.70379251      -0.10025836      -0.48252922
O       -1.15592363       2.34797582       0.37450279
O       -0.51851247      -1.45672160       1.81564476
13
Lattice="529.1772105638412 0.0 0.0 0.0 529.1772105638412 0.0 0.0 0.0 529.1772105638412" Properties=species:S:1:pos:R:3 ipi_comment="Step:         640  Bead:       0 positions{ase}  cell{ase}" pbc="T T T"
H       -0.27751635       1.17180483       0.17894623
H       -0.21504734      -0.39374079       0.78857620
H        1.14359206       0.11257435      -0.15472383
H        3.22518613      -0.18391490       0.28543855
H        3.12701682       0.45654422      -1.14330296
H       -2.05787011       2.25029659       0.02274363
H       -1.08643003       3.10534669       1.01629683
H       -1.43477989      -1.77398080       2.08272682
H        0.05040093      -2.23079805       1.69357463
O        0.22445488       0.26624833       0.18690912
O        2.67427360      -0.09691552      -0.48718726
O       -1.17132197       2.37256602       0.37897013
O       -0.52039298      -1.47468307       1.82206233
13