13
Properties=species:S:1:pos:R:3 ipi_comment="Step:           0  Bead:       0 positions{ase}  cell{ase}" pbc="F F F"
H       -0.17162402       0.99555316       0.00473486
H       -0.53842585      -0.53583351       0.71223619
H        0.99859320      -0.10609560       0.09269124
H        2.95167916      -0.72799353       0.41628544
H        2.82399961       0.82332379       0.38936683
H       -0.06136288       2.93153118      -0.83804214
H       -0.21663176       3.15665531       0.67757749
H       -0.96483947      -1.54127569       2.74271215
H       -2.14579432      -1.86554619       1.81526214
O        0.00000000       0.00000000       0.00000000
O        2.48154349       0.00000000       0.00000000
O       -0.00570156       2.46453243       0.00000000
O       -1.28149480      -1.43613888       1.82246890
13
Properties=species:S:1:pos:R:3 ipi_comment="Step:          20  Bead:       0 positions{ase}  cell{ase}" pbc="F F F"
H       -0.20157271       1.45510192       0.07592378
H       -0.42856341      -0.58319793       0.74857543
H        1.51056586      -0.08042599       0.11566396
H        3.06069809      -0.74827647       0.18507722
H        2.97966793       0.73190155       0.41345870
H       -0.03364255       2.86820953      -0.86158559
H       -0.26492661       2.95031897       0.77295382
H       -0.97678923      -1.57316175       2.71949224
H       -2.10832727      -1.82258913       1.75908758
O        0.00008006       0.01252093      -0.01286260
O        2.43598751      -0.02277139       0.02362296
O       -0.03755640       2.39422043      -0.02311140
O       -1.25844297      -1.35983307       1.84012343
13
Properties=species:S:1:pos:R:3 ipi_comment="Step:          40  Bead:       0 positions{ase}  cell{ase}" pbc="F F F"
H       -0.15227153       1.13220805       0.00444180
H       -0.52544018      -0.51554244       0.98635194
H        1.03218870      -0.03315314       0.16141781
H        2.91483512      -0.88318718      -0.00879804
H        3.06764966       0.71868701       0.30941972
H       -0.14217371       2.91615306      -0.84801045
H       -0.39642546       3.01209268       0.68365632
H       -0.84854804      -1.59644476       2.65015696
H       -2.04685213      -1.68104282       1.65512637
O       -0.01716888      -0.04179773      -0.00683043
O        2.45278520      -0.03470286       0.05762975
O       -0.07643567       2.38750027      -0.01804350
O       -1.17915865      -1.27879134       1.81611563
13
Properties=species:S:1:pos:R:3 ipi_comment="Step:          60  Bead:       0 positions{ase}  cell{ase}" pbc="F F F"
H       -0.13982843       1.30864989       0.01241527
H       -0.61056409      -0.51882339       0.97359189
H        0.95622097      -0.08024440       0.06854759
H        2.90471194      -0.88276476      -0.07759643
H        3.20630532       0.56131605       0.16864153
H       -0.23652439       2.83150830      -0.90325923
H       -0.50574750       2.90362544       0.73681837
H       -0.61193660      -1.55364126       2.56126268
H       -1.98336136      -1.54562237       1.58827763
O       -0.02113542      -0.11501967       0.01261874
O        2.42109971      -0.03729159       0.08292813
O       -0.12749074       2.39085309      -0.01184354
O       -1.09725959      -1.20344999       1.79446892
13
Properties=species:S:1:pos:R:3 ipi_comment="Step:          80  Bead:       0 positions{ase}  cell{ase}" pbc="F F F"
H       -0.13113601       1.30812911       0.06474101
H       -0.46174474      -0.77852094       0.92470416
H        1.43648861       0.00697672       0.05779807
H        2.74923367      -0.95536624      -0.21755753
H        2.96006643       0.72174998      -0.00068360
H       -0.40355780       2.84864865      -0.88515829
H       -0.65236379       2.89692130       0.65213348
H       -0.50722150      -1.60322227       2.52506573
H       -1.90477661      -1.63602932       1.75690476
O       -0.01821594      -0.14044643       0.00319499
O        2.40460440      -0.07715863       0.10804229
O       -0.16994177       2.39896737      -0.02330043
O       -1.04789303      -1.13274249       1.80603372
13
Properties=species:S:1:pos:R:3 ipi_comment="Step:         100  Bead:       0 positions{ase}  cell{ase}" pbc="F F F"
H       -0.33120419       1.09327935      -0.05631877
H       -0.64050475      -0.71060155       0.93797738
H        1.34563126      -0.10314383       0.12313738
H        2.92103604      -0.81629474      -0.39051713
H        2.93926375       0.61177786      -0.27475215
H       -0.55196467       2.69428703      -0.90765651
H       -0.77626339       2.83836057       0.63848194
H       -0.36875762      -1.65914434       2.44903487
H       -1.82732101      -1.67421691       1.66335235
O       -0.00393272      -0.10574744      -0.05164789
O        2.43767907      -0.10322221       0.15436822
O       -0.21562647       2.39499155      -0.01373095
O       -1.02593515      -1.10369601       1.84878207
13
Properties=species:S:1:pos:R:3 ipi_comment="Step:         120  Bead:       0 positions{ase}  cell{ase}" pbc="F F F"
H       -0.10616690       1.33179718       0.04218413
H       -0.45261794      -0.44867446       1.04196065
H        1.29589702      -0.13085340      -0.01363551
H        2.87017365      -0.98020913      -0.24753611
H        2.69461501       0.74068338      -0.21694710
H       -0.65242875       2.72826031      -0.83631237
H       -0.80828232       2.64527270       0.74686566
H       -0.32334973      -1.72232590       2.34626288
H       -1.80133842      -1.69461681       1.60473414
O        0.03514291      -0.03759504      -0.14454002
O        2.48342019      -0.12351054       0.15105082
O       -0.28152412       2.32921721      -0.00630486
O       -1.04526921      -1.09807343       1.91961966
13
Properties=species:S:1:pos:R:3 ipi_comment="Step:         140  Bead:       0 positions{ase}  cell{ase}" pbc="F F F"
H       -0.11323717       1.01045966      -0.00955273
H       -0.54160064      -0.63052940       1.06690873
H        1.37306160      -0.14741166      -0.07304045
H        3.05950108      -0.83744950      -0.23577535
H        2.98988878       0.56028229      -0.28940892
H       -0.81798092       2.69278478      -0.76919528
H       -0.84381838       2.64525292       0.80647369
H       -0.41804271      -1.79056342       2.38851912
H       -1.82356215      -1.51204462       1.55610579
O        0.10189579      -0.01785358      -0.19340083
O        2.46376675      -0.11406119       0.12615857
O       -0.37495666       2.30185157       0.01697092
O       -1.00824229      -1.06974788       1.97176918
13
Properties=species:S:1:pos:R:3 ipi_comment="Step:         160  Bead:       0 positions{ase}  cell{ase}" pbc="F F F"
H       -0.33294940       1.11908569      -0.02883696
H       -0.36111017      -0.71891360       1.12787548
H        1.34335506       0.00057102       0.04171339
H        2.84901435      -1.02571887       0.04490164
H        2.94607076       0.69098325      -0.15165673
H       -1.00250877       2.61241842      -0.72346944
H       -0.87835727       2.68683908       0.84770946
H       -0.47675799      -1.67523270       2.56803205
H       -1.86391945      -1.41700928       1.86809736
O        0.13376931      -0.05930743      -0.20779554
O        2.52002696      -0.10766518       0.06567143
O       -0.47681863       2.28440266       0.03157448
O       -0.95410506      -1.03502348       1.95938302
13
Properties=species:S:1:pos:R:3 ipi_comment="Step:         180  Bead:       0 positions{ase}  cell{ase}" pbc="F F F"
H       -0.26478952       1.22586544       0.07900986
H       -0.51303178      -0.60453672       0.94247648
H        1.25480370      -0.16167780      -0.08265159
H        3.03517687      -0.86723807       0.19289746
H        3.27449609       0.49611684      -0.05608558
H       -1.12072295       2.55375450      -0.68923817
H       -0.89939342       2.60266804       0.91631461
H       -0.39844654      -1.38727947       2.66315335
H       -1.82120831      -1.26985023       1.83743039
O        0.14667562      -0.10737461      -0.14826210
O        2.52995260      -0.08988706       0.03293081
O       -0.58158426       2.24697713       0.03984362
O       -0.89258763      -0.98714250       1.91115700
13
Properties=species:S:1:pos:R:3 ipi_comment="Step:         200  Bead:       0 positions{ase}  cell{ase}" pbc="F F F"
H       -0.24735290       1.27617984      -0.08119957
H       -0.19631288      -0.61560381       0.99874828
H        1.26942661      -0.00945932      -0.13677486
H        2.94930134      -0.88869591       0.35026606
H        3.18135564       0.65950660      -0.12703812
H       -1.27808954       2.58412533      -0.58986766
H       -0.98048134       2.64418978       0.91467346
H       -0.39074414      -1.19339527       2.63286207
H       -1.76700222      -1.20289549       1.93263395
O        0.14102944      -0.15821443      -0.08299605
O        2.58032759      -0.09996624      -0.00633427
O       -0.66887573       2.22865836       0.08098699
O       -0.84959757      -0.94987349       1.83827949
13
Properties=species:S:1:pos:R:3 ipi_comment="Step:         220  Bead:       0 positions{ase}  cell{ase}" pbc="F F F"
H       -0.47611883       1.19569454       0.15026836
H       -0.41125948      -0.53531802       0.78357033
H        1.60604857      -0.05507759       0.11484552
H        3.04639276      -0.70077013       0.54734230
H        3.18095188       0.70613717      -0.13840831
H       -1.38828884       2.55823715      -0.56862559
H       -0.87932292       2.58609748       0.98525377
H       -0.42589027      -1.14177764       2.66887002
H       -1.74416878      -1.11501322       1.89153885
O        0.15769118      -0.14768177      -0.07009487
O        2.60049357      -0.10242116      -0.06551115
O       -0.73483260       2.21219268       0.10061585
O       -0.81846764      -0.95687478       1.83088205
13
Properties=species:S:1:pos:R:3 ipi_comment="Step:         240  Bead:       0 positions{ase}  cell{ase}" pbc="F F F"
H       -0.50112835       1.09487836       0.09324031
H       -0.24671702      -0.63021481       0.91075602
H        1.51949761      -0.00752797       0.03315634
H        3.15944213      -0.48940355       0.66515803
H        2.98984961       0.83472985      -0.22752584
H       -1.50676739       2.46157797      -0.50669863
H       -0.89003725       2.68832700       0.93923333
H       -0.45286724      -1.12944389       2.72120424
H       -1.78294697      -1.16212987       1.94258596
O        0.17996531      -0.10209473      -0.09950222
O        2.64929682      -0.09787335      -0.09715092
O       -0.78648879       2.19059562       0.12705228
O       -0.82402677      -0.99565595       1.85689558
13
Properties=species:S:1:pos:R:3 ipi_comment="Step:         260  Bead:       0 positions{ase}  cell{ase}" pbc="F F F"
H       -0.20518721       1.24822806       0.06053783
H       -0.28789483      -0.55347421       0.96783973
H        1.51045255      -0.26567373      -0.08138966
H        3.10364258      -0.29976627       0.74656354
H        2.85955655       0.89768770      -0.34594174
H       -1.63542038       2.33435342      -0.46086589
H       -0.89256959       2.62130035       0.97485647
H       -0.37693165      -1.09002363       2.74720907
H       -1.82565463      -1.17988425       1.96279049
O        0.21679390      -0.03124858      -0.10131274
O        2.68389506      -0.06757832      -0.13494719
O       -0.83598102       2.15513204       0.13647611
O       -0.84354631      -1.06460689       1.88704765
13
Properties=species:S:1:pos:R:3 ipi_comment="Step:         280  Bead:       0 positions{ase}  cell{ase}" pbc="F F F"
H       -0.24769255       1.09786679       0.06802644
H       -0.47692017      -0.50222910       1.09503511
H        1.42549468       0.10649479      -0.02228188
H        3.06593964      -0.11019528       0.77114788
H        2.85852436       0.89005762      -0.47049411
H       -1.77459342       2.14271236      -0.31155553
H       -0.94890116       2.61084037       1.01031322
H       -0.38584816      -1.13572593       2.77186231
H       -1.81656784      -1.13178043       2.01422204
O        0.27622009       0.04484872      -0.07344400
O        2.70286045      -0.06015243      -0.19215889
O       -0.88324878       2.13401274       0.14590468
O       -0.83998281      -1.14309528       1.88461608
13
Properties=species:S:1:pos:R:3 ipi_comment="Step:         300  Bead:       0 positions{ase}  cell{ase}" pbc="F F F"
H       -0.48137029       1.09917121       0.25413140
H       -0.37701791      -0.48454889       1.25320181
H        1.54056933       0.09561914      -0.12385427
H        3.09135939      -0.17191071       0.70385081
H        3.17105608       0.72907502      -0.66675582
H       -1.85077364       2.13641053      -0.18232193
H       -0.89539345       2.70448799       0.95018415
H       -0.33128084      -1.26091240       2.75826311
H       -1.78567007      -0.96623075       2.08864795
O        0.34277173       0.10878757      -0.04822737
O        2.67224185      -0.01698797      -0.22850664
O       -0.94857634       2.10142994       0.15728839
O       -0.83465852      -1.21214202       1.87749155
13
Properties=species:S:1:pos:R:3 ipi_comment="Step:         320  Bead:       0 positions{ase}  cell{ase}" pbc="F F F"
H       -0.26212243       1.23151199       0.08463226
H       -0.27148003      -0.56401207       1.09457002
H        1.54312087       0.14807494      -0.20829940
H        3.10247237      -0.35373759       0.57687760
H        3.31682394       0.44768511      -0.82275748
H       -1.91550446       2.16555963      -0.11454941
H       -0.82586045       2.81083770       0.84405295
H       -0.28387931      -1.52201137       2.70769554
H       -1.71734979      -0.88402488       2.11520332
O        0.35114995       0.10408299       0.00332278
O        2.66155584       0.03264943      -0.25146149
O       -1.00329283       2.10803457       0.16039341
O       -0.81573537      -1.23839737       1.89354328
13
Properties=species:S:1:pos:R:3 ipi_comment="Step:         340  Bead:       0 positions{ase}  cell{ase}" pbc="F F F"
H       -0.32039142       1.13414122       0.08265445
H       -0.20197903      -0.65768506       1.10246519
H        1.50973922       0.23765106      -0.07393840
H        3.16869506      -0.40328217       0.47510805
H        3.23191167       0.28979986      -1.01740532
H       -1.95296704       2.05782251      -0.09479134
H       -0.82742728       2.94375260       0.67421707
H       -0.27690554      -1.69512328       2.59900171
H       -1.65612028      -0.90319390       2.25581914
O        0.29890434       0.07712627       0.06662194
O        2.69755377       0.04418457      -0.26234575
O       -1.02329534       2.13875989       0.15476808
O       -0.77875022      -1.22371121       1.86403538
13
Properties=species:S:1:pos:R:3 ipi_comment="Step:         360  Bead:       0 positions{ase}  cell{ase}" pbc="F F F"
H       -0.34052300       1.23086536       0.30433599
H       -0.26654517      -0.47008139       1.15058842
H        1.48854832      -0.01118945      -0.04195813
H        3.32488696      -0.37314916       0.31980125
H        3.06374829       0.14742928      -1.15167426
H       -1.99401190       2.15235726      -0.04510070
H       -0.83801834       2.99613307       0.51045691
H       -0.17855613      -1.79198700       2.43019669
H       -1.56335179      -0.89823749       2.29168517
O        0.26008144       0.05977526       0.11384911
O        2.70158489       0.06906072      -0.26415209
O       -1.03314893       2.12818237       0.15649842
O       -0.73546711      -1.21928897       1.83167748
13
Properties=species:S:1:pos:R:3 ipi_comment="Step:         380  Bead:       0 positions{ase}  cell{ase}" pbc="F F F"
H       -0.42579204       1.24753505       0.11860431
H       -0.13436502      -0.54105772       0.99453614
H        1.56996914       0.08977528       0.01654435
H        3.32885056      -0.44043009       0.19478137
H        2.81802024      -0.01119671      -1.19038995
H       -1.99496077       2.01130864      -0.00316498
H       -0.69736694       2.99482757       0.44012136
H       -0.17545643      -1.83036020       2.35018246
H       -1.44331527      -0.97901616       2.42526277
O        0.27365873       0.06240029       0.13992487
O        2.65581557       0.08700868      -0.25373869
O       -1.03537712       2.13438920       0.16609705
O       -0.71046008      -1.21829950       1.81216812
13
Properties=species:S:1:pos:R:3 ipi_comment="Step:         400  Bead:       0 positions{ase}  cell{ase}" pbc="F F F"
H       -0.47204133       1.24164506       0.09966363
H       -0.23984012      -0.53962481       0.98540719
H        1.53424175       0.09075151       0.17239748
H        3.16838122      -0.55612012       0.18518878
H        2.59146933      -0.05729103      -1.24644832
H       -2.01583240       2.18999843       0.12152194
H       -0.72413290       3.02148683       0.42084175
H       -0.19323906      -1.97595711       2.25562109
H       -1.38384593      -0.90580969       2.40121587
O        0.29267108       0.08751837       0.12867294
O        2.63274552       0.08354893      -0.27935515
O       -1.03101825       2.13548046       0.17751655
O       -0.67419232      -1.23901365       1.83453412
13
Properties=species:S:1:pos:R:3 ipi_comment="Step:         420  Bead:       0 positions{ase}  cell{ase}" pbc="F F F"
H       -0.38002463       1.12989471       0.33763831
H       -0.18597591      -0.55266569       1.17613904
H        1.50340668       0.09295408      -0.02850672
H        3.09543510      -0.72142371      -0.01340167
H        2.52545397      -0.15681290      -1.25844426
H       -2.02789620       2.28899129       0.23137300
H       -0.56012122       2.98765024       0.39453691
H       -0.21264042      -2.05941102       2.19001341
H       -1.31539355      -1.01701009       2.52462227
O        0.28555542       0.13471620       0.06995051
O        2.63280668       0.07273468      -0.29126112
O       -1.05463053       2.15546367       0.20474400
O       -0.65468248      -1.26281294       1.86794512
13
Properties=species:S:1:pos:R:3 ipi_comment="Step:         440  Bead:       0 positions{ase}  cell{ase}" pbc="F F F"
H       -0.51378343       1.16324351       0.15350481
H       -0.17345761      -0.60942981       1.23502433
H        1.49619434       0.11113093       0.05140945
H        3.01581913      -0.70472203       0.17302267
H        2.73497718       0.03713867      -1.30022789
H       -2.01464588       2.32117581       0.30651914
H       -0.54180892       3.00465176       0.39439417
H       -0.22806142      -2.13654711       2.05511273
H       -1.22899153      -1.03538030       2.59756277
O        0.25987098       0.17303931       0.02081506
O        2.63181786       0.04659967      -0.31280308
O       -1.04800405       2.15840591       0.23854161
O       -0.64118799      -1.28796686       1.89774630
13
Properties=species:S:1:pos:R:3 ipi_comment="Step:         460  Bead:       0 positions{ase}  cell{ase}" pbc="F F F"
H       -0.36672250       1.19215376       0.11665400
H       -0.32071949      -0.59972916       1.09584812
H        1.48148027       0.14301074      -0.25022560
H        3.15451947      -0.65634133       0.18301134
H        3.01508764       0.08823820      -1.18616679
H       -1.99778662       2.31391719       0.39652454
H       -0.53373996       3.01743214       0.47922327
H       -0.21993800      -2.15629827       1.98076995
H       -1.08238887      -1.02720274       2.68505945
O        0.21653285       0.19143411       0.00393606
O        2.59863462       0.02238989      -0.29285660
O       -1.03198369       2.17267265       0.26249328
O       -0.61745293      -1.30674617       1.88116210
13
Properties=species:S:1:pos:R:3 ipi_comment="Step:         480  Bead:       0 positions{ase}  cell{ase}" pbc="F F F"
H       -0.32807109       1.13293451       0.32791986
H       -0.24148169      -0.64101108       1.10603832
H        1.53920540       0.10993343      -0.15827545
H        3.05560392      -0.54302266       0.39492881
H        3.13515248       0.31093623      -1.06229420
H       -1.97251345       2.25188337       0.45533842
H       -0.65133507       3.11595289       0.46195962
H       -0.13435883      -2.13329628       1.92656875
H       -0.81541925      -0.94899465       2.75001562
O        0.15912997       0.16884734      -0.00139810
O        2.59197197      -0.00017055      -0.30948212
O       -1.00832492       2.19551853       0.27500798
O       -0.60583837      -1.30587471       1.84640973
13
Properties=species:S:1:pos:R:3 ipi_comment="Step:         500  Bead:       0 positions{ase}  cell{ase}" pbc="F F F"
H       -0.39797721       1.29242067       0.14000672
H       -0.14866964      -0.62236207       1.06773422
H        1.37743211       0.23835501      -0.05826132
H        3.21230468      -0.39507190       0.39363233
H        3.10583262       0.44849146      -0.92986294
H       -1.96886234       2.10525813       0.46255236
H       -0.64927579       3.17279558       0.43757675
H       -0.05417756      -2.12200156       1.91262288
H       -0.55453205      -0.89387658       2.72570286
O        0.13423504       0.13287739      -0.01222864
O        2.55238869      -0.02942517      -0.29894691
O       -0.99495867       2.23394080       0.30796198
O       -0.57585116      -1.31490230       1.81693251
13
Properties=species:S:1:pos:R:3 ipi_comment="Step:         520  Bead:       0 positions{ase}  cell{ase}" pbc="F F F"
H       -0.37737672       1.41407676       0.06124317
H       -0.18621457      -0.66369820       0.99031162
H        1.30071010       0.03542698      -0.11661638
H        3.16283570      -0.23086819       0.45557492
H        2.85964637       0.62582958      -0.90431902
H       -1.98209233       2.19323373       0.47428203
H       -0.63219825       3.16385923       0.48238724
H       -0.01216146      -2.14711038       1.86279578
H       -0.55643960      -0.85009077       2.69961884
O        0.14896132       0.10804587      -0.04391510
O        2.50284173      -0.04215687      -0.28206546
O       -0.98744551       2.24533378       0.32983075
O       -0.52678424      -1.30868225       1.81909414
13
Properties=species:S:1:pos:R:3 ipi_comment="Step:         540  Bead:       0 positions{ase}  cell{ase}" pbc="F F F"
H       -0.48230357       1.20825423       0.28627758
H       -0.19225261      -0.62138065       1.01642964
H        1.31582442       0.02743780      -0.09507434
H        3.09059485      -0.06801066       0.48088547
H        2.79748268       0.67371090      -0.89667408
H       -1.99192973       2.31697959       0.41140031
H       -0.56044070       3.13228614       0.47846332
H       -0.07690747      -2.22067385       1.95758472
H       -0.60772487      -0.98759317       2.76001968
O        0.15461101       0.09619476      -0.10122595
O        2.45712059      -0.04215227      -0.28687848
O       -0.98294527       2.25624866       0.36585872
O       -0.47329683      -1.30273246       1.82036434
13
Properties=species:S:1:pos:R:3 ipi_comment="Step:         560  Bead:       0 positions{ase}  cell{ase}" pbc="F F F"
H       -0.46990637       1.29912306       0.26719697
H       -0.16065549      -0.65000427       1.06111145
H        1.27047532       0.14651453      -0.15136628
H        2.94421882      -0.00226859       0.55842042
H        2.72222141       0.78150744      -0.82090246
H       -1.94184205       2.42180388       0.27022148
H       -0.38294043       3.00895144       0.48187847
H       -0.21300114      -2.30427568       1.72940183
H       -0.78447719      -0.99737082       2.69298565
O        0.12356811       0.09170740      -0.13229656
O        2.43911775      -0.03162320      -0.28281227
O       -0.97250350       2.24602607       0.38713618
O       -0.41527189      -1.31385969       1.84564548
13
Properties=species:S:1:pos:R:3 ipi_comment="Step:         580  Bead:       0 positions{ase}  cell{ase}" pbc="F F F"
H       -0.58039930       1.27507504       0.04846111
H       -0.27808147      -0.61809030       0.98449633
H        1.24320558       0.00985945      -0.17583999
H        2.79408956      -0.04923761       0.62335569
H        2.89973969       0.76573661      -0.75284992
H       -1.84233516       2.53773317       0.12173284
H       -0.39960641       3.03799505       0.49576368
H       -0.53959003      -2.32407812       1.67033891
H       -0.95806593      -1.15378440       2.60800466
O        0.07631686       0.08565827      -0.13842783
O        2.44657221       0.00632140      -0.28167761
O       -0.94577060       2.23619005       0.40797726
O       -0.36156187      -1.32188362       1.85912835
13
Properties=species:S:1:pos:R:3 ipi_comment="Step:         600  Bead:       0 positions{ase}  cell{ase}" pbc="F F F"
H       -0.40399749       1.27741436       0.17399780
H       -0.22704216      -0.64999968       1.07129918
H        1.29650399       0.12433134      -0.28582204
H        2.81374001      -0.13262101       0.60548722
H        3.00640374       0.74280745      -0.66999264
H       -1.77710297       2.45683288      -0.02175751
H       -0.27618261       2.93796656       0.46809676
H       -0.64239060      -2.20135419       1.39747175
H       -0.96982208      -0.97132961       2.49500122
O       -0.00113719       0.07538275      -0.12895002
O        2.45214146       0.02444345      -0.28743973
O       -0.94663370       2.22890195       0.43705236
O       -0.31912853      -1.32892133       1.85088902
13
Properties=species:S:1:pos:R:3 ipi_comment="Step:         620  Bead:       0 positions{ase}  cell{ase}" pbc="F F F"
H       -0.43978354       1.26145820       0.22004130
H       -0.06591947      -0.59003567       0.91875615
H        1.41166264       0.21542309      -0.14699638
H        2.86477317      -0.21546020       0.57778876
H        2.93640438       0.78145557      -0.69106348
H       -1.64753158       2.34354600      -0.18387709
H       -0.47300488       3.09551732       0.37882964
H       -0.77051052      -2.13079046       1.42239966
H       -1.00012908      -1.00527342       2.44550906
O       -0.04781062       0.05241856      -0.11169645
O        2.44850846       0.04608534      -0.28588638
O       -0.92620585       2.21952369       0.46853221
O       -0.28898856      -1.32904436       1.81902425
13
Properties=species:S:1:pos:R:3 ipi_comment="Step:         640  Bead:       0 positions{ase}  cell{ase}" pbc="F F F"
H       -0.27750612       1.43630596       0.19717248
H       -0.31605740      -0.59225129       0.84193318
H        1.36539251       0.11661184      -0.06847790
H        3.07072900      -0.15880926       0.43711898
H        2.82479525       0.79174508      -0.75778377
H       -1.71065322       2.20769946      -0.10423754
H       -0.40067840       3.08053270       0.44098494
H       -0.71338894      -2.16986327       1.49167897
H       -0.83260118      -0.88551717       2.51032921
O       -0.05184935       0.01216960      -0.08805504
O        2.42879373       0.06785339      -0.28440031
O       -0.92146804       2.24194158       0.46612062
O       -0.28220011      -1.33743028       1.79332632
13
Properties=species:S:1:pos:R:3 ipi_comment="Step:         660  Bead:       0 positions{ase}  cell{ase}" pbc="F F F"
H       -0.37164006       1.25817253       0.18333043
H       -0.15636454      -0.69648251       0.88637734
H        1.36106000       0.05138906      -0.10760131
H        3.16215254      -0.10580808       0.34295829
H        2.64354869       0.79487567      -0.91002366
H       -1.72371384       2.37805293      -0.02657031
H       -0.46221675       3.15493155       0.43675861
H       -0.70723994      -2.22437784       1.65621977
H       -0.66485495      -0.99831191       2.64358459
O       -0.04367568      -0.00592052      -0.07160149
O        2.41388967       0.10944855      -0.28354143
O       -0.90679374       2.26103287       0.45973713
O       -0.29459838      -1.36654297       1.77506906
13
Properties=species:S:1:pos:R:3 ipi_comment="Step:         680  Bead:       0 positions{ase}  cell{ase}" pbc="F F F"
H       -0.54144680       1.24105867       0.22786235
H       -0.20001763      -0.65965474       0.85462328
H        1.35765960       0.07565055      -0.03972449
H        3.12859941      -0.00433922       0.35990896
H        2.67869053       0.80420259      -0.95733283
H       -1.76354302       2.46568329       0.05177388
H       -0.31410210       3.05046288       0.39581144
H       -0.70712290      -2.28534105       1.66187700
H       -0.53937740      -1.14327210       2.72824816
O       -0.03186121       0.02330495      -0.07595468
O        2.40859015       0.15323326      -0.28864689
O       -0.90739706       2.25933024       0.42737311
O       -0.30168242      -1.43356685       1.80567615
13
Properties=species:S:1:pos:R:3 ipi_comment="Step:         700  Bead:       0 positions{ase}  cell{ase}" pbc="F F F"
H       -0.45637253       1.19620412       0.16681734
H       -0.26016353      -0.69026162       0.94475091
H        1.29095836       0.17741253      -0.16284809
H        3.03040240       0.06402116       0.46169708
H        2.77172152       0.85040049      -0.94651472
H       -1.80506168       2.56417903       0.05754050
H       -0.25011873       2.94107513       0.25326079
H       -0.69963236      -2.34880138       1.62686686
H       -0.35737046      -1.26375856       2.76036231
O       -0.02414039       0.04792198      -0.06327617
O        2.41946239       0.18424555      -0.30171267
O       -0.93733704       2.26707788       0.41424958
O       -0.30073261      -1.49354285       1.82681765
13
Properties=species:S:1:pos:R:3 ipi_comment="Step:         720  Bead:       0 positions{ase}  cell{ase}" pbc="F F F"
H       -0.54409979       0.97672015       0.17057287
H       -0.11667708      -0.73703896       1.06145372
H        1.29362984       0.19991095      -0.18925089
H        2.87812036       0.11132017       0.51390760
H        2.92519220       0.83460516      -0.96117898
H       -1.84766092       2.55946685       0.10791362