13
Lattice="529.1772105638412 0.0 0.0 0.0 529.1772105638412 0.0 0.0 0.0 529.1772105638412" Properties=species:S:1:pos:R:3:forces_component_raw:R:3 ipi_comment="Step:           0  Bead:       0 forces_component_raw{ase}  cell{ase}" pbc="T T T"
H        0.00000000       0.00000000       0.00000000      -0.27970431       1.37139993       0.38688684
H        0.00000000       0.00000000       0.00000000       0.11533064       0.22056053       0.10598039
H        0.00000000       0.00000000       0.00000000       1.84710773      -0.04492461      -0.03279235
H        0.00000000       0.00000000       0.00000000       1.29594226      -0.58777923       0.58168335
H        0.00000000       0.00000000       0.00000000       1.27956876       0.10091781       0.33975391
H        0.00000000       0.00000000       0.00000000      -0.02405843       1.09780054      -0.99101960
H        0.00000000       0.00000000       0.00000000       0.12756856      -0.41261410      -0.30823231
H        0.00000000       0.00000000       0.00000000      -0.10759229      -0.08291119       0.05673597
H        0.00000000       0.00000000       0.00000000      -0.52944879      -0.26988828       0.02104271
O        0.00000000       0.00000000       0.00000000      -2.29804071      -2.13939539      -0.47343742
O        0.00000000       0.00000000       0.00000000      -1.68256725       0.36649840      -0.56122606
O        0.00000000       0.00000000       0.00000000      -0.37975304      -0.03413932       0.99094389
O        0.00000000       0.00000000       0.00000000       0.63564689       0.41447491      -0.11631931
13
Lattice="529.1772105638412 0.0 0.0 0.0 529.1772105638412 0.0 0.0 0.0 529.1772105638412" Properties=species:S:1:pos:R:3:forces_component_raw:R:3 ipi_comment="Step:          20  Bead:       0 forces_component_raw{ase}  cell{ase}" pbc="T T T"
H        0.00000000       0.00000000       0.00000000      -0.18828958      -3.14818057      -0.25696436
H        0.00000000       0.00000000       0.00000000       0.64387622       0.92023515      -0.93209062
H        0.00000000       0.00000000       0.00000000      -4.94485194      -0.30197191       0.77806472
H        0.00000000       0.00000000       0.00000000      -0.75537414      -1.23253286      -0.24350715
H        0.00000000       0.00000000       0.00000000      -1.57575857      -0.08859415      -0.49680323
H        0.00000000       0.00000000       0.00000000      -0.21068216       0.15042307      -0.59957934
H        0.00000000       0.00000000       0.00000000       0.16887316      -0.41408040      -0.94992526
H        0.00000000       0.00000000       0.00000000       0.55637464      -0.41318573       1.78679338
H        0.00000000       0.00000000       0.00000000      -0.47605679      -0.21831068      -0.09117095
O        0.00000000       0.00000000       0.00000000      -0.23289508      -1.29998276       1.22381428
O        0.00000000       0.00000000       0.00000000       6.58815100       1.43231694       0.04312132
O        0.00000000       0.00000000       0.00000000       0.18268075       3.76798957       1.75380285
O        0.00000000       0.00000000       0.00000000       0.24395249       0.84587432      -2.01555563
13
Lattice="529.1772105638412 0.0 0.0 0.0 529.1772105638412 0.0 0.0 0.0 529.1772105638412" Properties=species:S:1:pos:R:3:forces_component_raw:R:3 ipi_comment="Step:          40  Bead:       0 forces_component_raw{ase}  cell{ase}" pbc="T T T"
H        0.00000000       0.00000000       0.00000000      -0.11999028       0.71821163       0.15891401
H        0.00000000       0.00000000       0.00000000      -0.51834630      -0.72533389       0.23736171
H        0.00000000       0.00000000       0.00000000       0.73462573      -0.16178857      -0.21280222
H        0.00000000       0.00000000       0.00000000       1.47711867      -0.42655202       0.06530217
H        0.00000000       0.00000000       0.00000000       0.07201221      -1.14641032      -0.24157787
H        0.00000000       0.00000000       0.00000000       0.05023483       0.11851937      -0.06135693
H        0.00000000       0.00000000       0.00000000       0.12876677      -0.22313846      -0.11361189
H        0.00000000       0.00000000       0.00000000       0.34832062      -0.59061343       1.41082681
H        0.00000000       0.00000000       0.00000000      -0.63274844      -0.39589881       0.18822621
O        0.00000000       0.00000000       0.00000000      -0.54995239      -0.15470799       0.09693354
O        0.00000000       0.00000000       0.00000000      -1.26177861       1.40262682       0.32383076
O        0.00000000       0.00000000       0.00000000      -0.32280507       0.11810912       0.02305985
O        0.00000000       0.00000000       0.00000000       0.59454225       1.46697654      -1.87510615
13
Lattice="529.1772105638412 0.0 0.0 0.0 529.1772105638412 0.0 0.0 0.0 529.1772105638412" Properties=species:S:1:pos:R:3:forces_component_raw:R:3 ipi_comment="Step:          60  Bead:       0 forces_component_raw{ase}  cell{ase}" pbc="T T T"
H        0.00000000       0.00000000       0.00000000      -0.04584065       0.47634433       0.13328233
H        0.00000000       0.00000000       0.00000000      -0.32032512      -1.21703609       1.15768674
H        0.00000000       0.00000000       0.00000000       2.04554527       0.12519675       0.25291191
H        0.00000000       0.00000000       0.00000000       0.37214727      -0.24222518      -0.01989473
H        0.00000000       0.00000000       0.00000000      -0.59619583       0.10500717       0.04235492
H        0.00000000       0.00000000       0.00000000      -0.14998351       0.27624127       0.92700087
H        0.00000000       0.00000000       0.00000000      -0.11987868       0.46047281      -0.33572396
H        0.00000000       0.00000000       0.00000000      -0.62991748      -0.67560743       0.58874334
H        0.00000000       0.00000000       0.00000000      -0.37960063      -0.79941490       0.92853066
O        0.00000000       0.00000000       0.00000000      -1.83385206       0.67068197      -1.27861961
O        0.00000000       0.00000000       0.00000000       0.80045057      -0.22859292      -0.11890203
O        0.00000000       0.00000000       0.00000000       0.16356267      -0.62165346      -0.78922559
O        0.00000000       0.00000000       0.00000000       0.69388817       1.67058568      -1.48814485
13
Lattice="529.1772105638412 0.0 0.0 0.0 529.1772105638412 0.0 0.0 0.0 529.1772105638412" Properties=species:S:1:pos:R:3:forces_component_raw:R:3 ipi_comment="Step:          80  Bead:       0 forces_component_raw{ase}  cell{ase}" pbc="T T T"
H        0.00000000       0.00000000       0.00000000      -0.12247157      -0.49401619      -0.23264048
H        0.00000000       0.00000000       0.00000000       0.00241100       1.33514365      -0.93372576
H        0.00000000       0.00000000       0.00000000      -3.22317137       0.32868779      -0.04518544
H        0.00000000       0.00000000       0.00000000       0.02070816       0.89933011       0.08490769
H        0.00000000       0.00000000       0.00000000       0.25157482      -0.29487164      -0.20656879
H        0.00000000       0.00000000       0.00000000       0.45072502      -1.22664426       0.27584704
H        0.00000000       0.00000000       0.00000000      -0.12254945      -0.50319986       0.92870233
H        0.00000000       0.00000000       0.00000000      -0.73179623       0.66567414      -0.94346380
H        0.00000000       0.00000000       0.00000000       0.35464918       0.23570621      -0.31301912
O        0.00000000       0.00000000       0.00000000      -0.12389120       0.53587003       0.25444212
O        0.00000000       0.00000000       0.00000000       2.64219350      -0.82343145       0.28820147
O        0.00000000       0.00000000       0.00000000       0.05234874       0.63713125      -0.91837824
O        0.00000000       0.00000000       0.00000000       0.54926942      -1.29537980       1.76088098
13
Lattice="529.1772105638412 0.0 0.0 0.0 529.1772105638412 0.0 0.0 0.0 529.1772105638412" Properties=species:S:1:pos:R:3:forces_component_raw:R:3 ipi_comment="Step:         100  Bead:       0 forces_component_raw{ase}  cell{ase}" pbc="T T T"
H        0.00000000       0.00000000       0.00000000       1.13501234       0.08386407       0.60482866
H        0.00000000       0.00000000       0.00000000       1.32602219       0.40199182      -0.10142215
H        0.00000000       0.00000000       0.00000000      -0.97627397       0.32563530      -0.62714700
H        0.00000000       0.00000000       0.00000000      -1.70797310      -0.21917156       1.31919582
H        0.00000000       0.00000000       0.00000000      -0.80775806       1.64597170       0.49416997
H        0.00000000       0.00000000       0.00000000       0.28189354       0.35620250       0.65889793
H        0.00000000       0.00000000       0.00000000      -0.64443665       0.56033411       0.73356832
H        0.00000000       0.00000000       0.00000000      -1.54177010       1.16132067      -1.47082189
H        0.00000000       0.00000000       0.00000000       0.61535965       0.27669812       0.43863190
O        0.00000000       0.00000000       0.00000000       0.40953982       0.88875457      -0.45534432
O        0.00000000       0.00000000       0.00000000       2.11815557      -1.59186460      -1.32455537
O        0.00000000       0.00000000       0.00000000      -0.12117266      -1.96343817      -1.86100008
O        0.00000000       0.00000000       0.00000000      -0.08659857      -1.92629855       1.59099822
13
Lattice="529.1772105638412 0.0 0.0 0.0 529.1772105638412 0.0 0.0 0.0 529.1772105638412" Properties=species:S:1:pos:R:3:forces_component_raw:R:3 ipi_comment="Step:         120  Bead:       0 forces_component_raw{ase}  cell{ase}" pbc="T T T"
H        0.00000000       0.00000000       0.00000000      -0.24030114      -1.65996612      -0.13119655
H        0.00000000       0.00000000       0.00000000      -0.95672106      -1.28384309       0.31808516
H        0.00000000       0.00000000       0.00000000       1.37248148       0.06346908       0.53845558
H        0.00000000       0.00000000       0.00000000       0.56800317       1.89837333       0.01227624
H        0.00000000       0.00000000       0.00000000       1.98827189       0.29145626      -1.05840385
H        0.00000000       0.00000000       0.00000000       0.10129098      -0.24840263       0.35426141
H        0.00000000       0.00000000       0.00000000      -0.28000271       0.57838010       0.21557698
H        0.00000000       0.00000000       0.00000000      -2.11571649       1.30320582      -0.79772845
H        0.00000000       0.00000000       0.00000000       0.90879391       0.54589826       0.41986009
O        0.00000000       0.00000000       0.00000000      -0.49184354      -0.38362459       0.19861110
O        0.00000000       0.00000000       0.00000000      -2.92550745      -2.22623838       0.48616229
O        0.00000000       0.00000000       0.00000000      -0.12615603       1.97574018      -0.25097571
O        0.00000000       0.00000000       0.00000000       2.19740698      -0.85444821      -0.30498429
13
Lattice="529.1772105638412 0.0 0.0 0.0 529.1772105638412 0.0 0.0 0.0 529.1772105638412" Properties=species:S:1:pos:R:3:forces_component_raw:R:3 ipi_comment="Step:         140  Bead:       0 forces_component_raw{ase}  cell{ase}" pbc="T T T"
H        0.00000000       0.00000000       0.00000000      -0.21733654       1.08592460      -0.04120658
H        0.00000000       0.00000000       0.00000000       0.36487960      -0.32084698       0.78519889
H        0.00000000       0.00000000       0.00000000       0.50274696       0.36686899       0.32226410
H        0.00000000       0.00000000       0.00000000      -1.04816027      -0.55415825       0.79143531
H        0.00000000       0.00000000       0.00000000       0.56648870       2.45070559      -0.41280090
H        0.00000000       0.00000000       0.00000000      -0.24652211       0.57966509       0.28630178
H        0.00000000       0.00000000       0.00000000      -0.26013337       0.69702933      -0.20141491
H        0.00000000       0.00000000       0.00000000      -0.86192399       0.88324812      -0.68822118
H        0.00000000       0.00000000       0.00000000       0.71882969       0.07395492       1.14304530
O        0.00000000       0.00000000       0.00000000      -0.44190126      -1.20221330      -0.25564777
O        0.00000000       0.00000000       0.00000000       0.81578446      -2.08256178      -0.52301621
O        0.00000000       0.00000000       0.00000000       0.30836389      -1.17612472       0.03982853
O        0.00000000       0.00000000       0.00000000      -0.20111576      -0.80149161      -1.24576638
13
Lattice="529.1772105638412 0.0 0.0 0.0 529.1772105638412 0.0 0.0 0.0 529.1772105638412" Properties=species:S:1:pos:R:3:forces_component_raw:R:3 ipi_comment="Step:         160  Bead:       0 forces_component_raw{ase}  cell{ase}" pbc="T T T"
H        0.00000000       0.00000000       0.00000000       0.33007071       0.10152349       0.65799737
H        0.00000000       0.00000000       0.00000000      -0.14024745       0.59087485      -1.27680318
H        0.00000000       0.00000000       0.00000000       0.44116007      -0.63586887       0.06244539
H        0.00000000       0.00000000       0.00000000       1.60872468       0.23341864      -0.32547577
H        0.00000000       0.00000000       0.00000000       2.87761335       1.57226305      -0.80810630
H        0.00000000       0.00000000       0.00000000      -0.24358710       0.40192751      -0.32582708
H        0.00000000       0.00000000       0.00000000       0.16622250      -0.19858939      -0.25946590
H        0.00000000       0.00000000       0.00000000       0.24542928       1.17779537      -0.96438231
H        0.00000000       0.00000000       0.00000000       0.37618068       0.75168448      -1.01472556
O        0.00000000       0.00000000       0.00000000      -0.75318004      -0.13178597       0.50252961
O        0.00000000       0.00000000       0.00000000      -4.70379472      -1.47494873       1.20342506
O        0.00000000       0.00000000       0.00000000      -0.07088783      -0.72561567       0.26831869
O        0.00000000       0.00000000       0.00000000      -0.13370415      -1.66267874       2.28006999
13
Lattice="529.1772105638412 0.0 0.0 0.0 529.1772105638412 0.0 0.0 0.0 529.1772105638412" Properties=species:S:1:pos:R:3:forces_component_raw:R:3 ipi_comment="Step:         180  Bead:       0 forces_component_raw{ase}  cell{ase}" pbc="T T T"
H        0.00000000       0.00000000       0.00000000      -0.10049415      -0.10240876      -0.44957087
H        0.00000000       0.00000000       0.00000000       0.88176709      -0.17827172       0.67303445
H        0.00000000       0.00000000       0.00000000      -0.91716700       0.61867267       0.19975650
H        0.00000000       0.00000000       0.00000000       0.90831607      -2.61028212       0.54350681
H        0.00000000       0.00000000       0.00000000       0.75296080       1.97939009      -0.36424474
H        0.00000000       0.00000000       0.00000000      -0.89526599       0.42966147      -0.91501450
H        0.00000000       0.00000000       0.00000000       0.04243602       0.06225949      -0.79788168
H        0.00000000       0.00000000       0.00000000      -0.11301919      -0.07046485      -0.16397299
H        0.00000000       0.00000000       0.00000000      -0.30136535      -0.36982066       0.53076448
O        0.00000000       0.00000000       0.00000000       0.35558677      -0.19211396      -0.20100799
O        0.00000000       0.00000000       0.00000000      -1.37898023       0.18862499      -0.18193769
O        0.00000000       0.00000000       0.00000000       0.92717038      -0.25048636       2.04058590
O        0.00000000       0.00000000       0.00000000      -0.16194522       0.49523970      -0.91401768
13
Lattice="529.1772105638412 0.0 0.0 0.0 529.1772105638412 0.0 0.0 0.0 529.1772105638412" Properties=species:S:1:pos:R:3:forces_component_raw:R:3 ipi_comment="Step:         200  Bead:       0 forces_component_raw{ase}  cell{ase}" pbc="T T T"
H        0.00000000       0.00000000       0.00000000       0.09985792      -1.22201845       0.73050641
H        0.00000000       0.00000000       0.00000000      -0.96761049       0.49377853      -0.59512749
H        0.00000000       0.00000000       0.00000000      -0.37539897      -0.21949292       0.29599983
H        0.00000000       0.00000000       0.00000000       2.20294967      -1.55963555       0.89672880
H        0.00000000       0.00000000       0.00000000       1.11847318      -0.28534896       0.26051898
H        0.00000000       0.00000000       0.00000000       0.12456694      -0.26544313      -0.66789333
H        0.00000000       0.00000000       0.00000000       0.53914714      -0.60035386       0.42265942
H        0.00000000       0.00000000       0.00000000       0.39061264      -0.51220875       1.50543222
H        0.00000000       0.00000000       0.00000000      -1.41744120      -0.43471993       0.09483559
O        0.00000000       0.00000000       0.00000000       1.22818163       0.85662117      -1.16840557
O        0.00000000       0.00000000       0.00000000      -3.42310630       1.93157062      -1.29009017
O        0.00000000       0.00000000       0.00000000      -0.64194764       1.48520030      -0.23531588
O        0.00000000       0.00000000       0.00000000       1.12171548       0.33205094      -0.24984881
13
Lattice="529.1772105638412 0.0 0.0 0.0 529.1772105638412 0.0 0.0 0.0 529.1772105638412" Properties=species:S:1:pos:R:3:forces_component_raw:R:3 ipi_comment="Step:         220  Bead:       0 forces_component_raw{ase}  cell{ase}" pbc="T T T"
H        0.00000000       0.00000000       0.00000000      -0.07016008       0.12561671      -0.51521913
H        0.00000000       0.00000000       0.00000000       1.35173517       0.18648781      -0.00637964
H        0.00000000       0.00000000       0.00000000      -1.58413060       0.35087238       0.06861665
H        0.00000000       0.00000000       0.00000000      -0.05311606      -0.72030425       0.49075755
H        0.00000000       0.00000000       0.00000000      -1.20863269      -0.16259501      -0.04370291
H        0.00000000       0.00000000       0.00000000       0.23566193      -0.33967975       0.49263445
H        0.00000000       0.00000000       0.00000000      -0.32577553       0.56283664       0.31797363
H        0.00000000       0.00000000       0.00000000       0.79887781      -0.49827527       2.07546975
H        0.00000000       0.00000000       0.00000000      -2.11687787      -0.58703682       0.66970988
O        0.00000000       0.00000000       0.00000000       0.19458528       0.08889430      -0.36680866
O        0.00000000       0.00000000       0.00000000       2.33925033       0.33516773      -0.60199206
O        0.00000000       0.00000000       0.00000000       0.09237392       0.01869187      -0.40242309
O        0.00000000       0.00000000       0.00000000       0.34620839       0.63932365      -2.17863643
13
Lattice="529.1772105638412 0.0 0.0 0.0 529.1772105638412 0.0 0.0 0.0 529.1772105638412" Properties=species:S:1:pos:R:3:forces_component_raw:R:3 ipi_comment="Step:         240  Bead:       0 forces_component_raw{ase}  cell{ase}" pbc="T T T"
H        0.00000000       0.00000000       0.00000000       0.69875791       0.35934668       0.31035428
H        0.00000000       0.00000000       0.00000000      -0.02446015       1.05041557      -0.68212167
H        0.00000000       0.00000000       0.00000000       0.44391799      -0.44708421       0.20288397
H        0.00000000       0.00000000       0.00000000      -0.61984344       0.22810458      -0.33523356
H        0.00000000       0.00000000       0.00000000      -0.15367483      -0.80324086       0.07957054
H        0.00000000       0.00000000       0.00000000       0.57663669      -0.35288943       0.43202012
H        0.00000000       0.00000000       0.00000000      -0.00408108       0.26023675       1.20361153
H        0.00000000       0.00000000       0.00000000       0.80927807      -0.27157223       1.63471964
H        0.00000000       0.00000000       0.00000000      -0.40930200      -0.13391525      -0.07389625
O        0.00000000       0.00000000       0.00000000      -0.26350654      -0.08506307       0.54803335
O        0.00000000       0.00000000       0.00000000      -0.28788147       1.01804426       0.09663125
O        0.00000000       0.00000000       0.00000000      -0.48696715      -0.89391747      -1.94928933
O        0.00000000       0.00000000       0.00000000      -0.27887400       0.07153466      -1.46728387
13
Lattice="529.1772105638412 0.0 0.0 0.0 529.1772105638412 0.0 0.0 0.0 529.1772105638412" Properties=species:S:1:pos:R:3:forces_component_raw:R:3 ipi_comment="Step:         260  Bead:       0 forces_component_raw{ase}  cell{ase}" pbc="T T T"
H        0.00000000       0.00000000       0.00000000      -0.68626470      -0.81548750       0.19956139
H        0.00000000       0.00000000       0.00000000      -0.27123818       0.21144821      -0.05483399
H        0.00000000       0.00000000       0.00000000       0.70329350       1.33444818       0.09572077
H        0.00000000       0.00000000       0.00000000       0.01186229       0.61105245      -0.94438726
H        0.00000000       0.00000000       0.00000000       0.20127576      -0.90727106       0.50969808
H        0.00000000       0.00000000       0.00000000       1.08761704      -0.23555779       0.89146508
H        0.00000000       0.00000000       0.00000000      -0.17984926       0.56164659       0.69031417
H        0.00000000       0.00000000       0.00000000      -0.34190563      -0.15885524       0.49540255
H        0.00000000       0.00000000       0.00000000       0.32353959      -0.00403903       0.33538919
O        0.00000000       0.00000000       0.00000000      -0.08889103      -0.36431290       0.14959900
O        0.00000000       0.00000000       0.00000000      -0.98981167      -0.42172923       0.57156541
O        0.00000000       0.00000000       0.00000000      -0.36133260      -0.28491146      -1.57109227
O        0.00000000       0.00000000       0.00000000       0.59170488       0.47356876      -1.36840211
13
Lattice="529.1772105638412 0.0 0.0 0.0 529.1772105638412 0.0 0.0 0.0 529.1772105638412" Properties=species:S:1:pos:R:3:forces_component_raw:R:3 ipi_comment="Step:         280  Bead:       0 forces_component_raw{ase}  cell{ase}" pbc="T T T"
H        0.00000000       0.00000000       0.00000000      -0.73762473       0.50952910       0.45471722
H        0.00000000       0.00000000       0.00000000       0.65128514       0.14192799       0.12817744
H        0.00000000       0.00000000       0.00000000       1.05135141      -0.77150891       0.10358973
H        0.00000000       0.00000000       0.00000000      -0.10844019       0.49873315      -1.91965711
H        0.00000000       0.00000000       0.00000000       1.09379490      -0.81059607       0.51867110
H        0.00000000       0.00000000       0.00000000       0.22203220       0.73887838       0.60826511
H        0.00000000       0.00000000       0.00000000      -0.53783192       0.44680224      -0.29922934
H        0.00000000       0.00000000       0.00000000      -0.24515820       0.17990898      -0.63198969
H        0.00000000       0.00000000       0.00000000       0.23029728       0.04807392      -0.02690364
O        0.00000000       0.00000000       0.00000000      -0.35614509      -0.78276628      -0.54936595
O        0.00000000       0.00000000       0.00000000      -1.36309552       1.07818662       1.59931787
O        0.00000000       0.00000000       0.00000000       0.25630662      -1.03850301      -0.37017543
O        0.00000000       0.00000000       0.00000000      -0.15677189      -0.23866611       0.38458268
13
Lattice="529.1772105638412 0.0 0.0 0.0 529.1772105638412 0.0 0.0 0.0 529.1772105638412" Properties=species:S:1:pos:R:3:forces_component_raw:R:3 ipi_comment="Step:         300  Bead:       0 forces_component_raw{ase}  cell{ase}" pbc="T T T"
H        0.00000000       0.00000000       0.00000000       0.32092532       0.30099456      -0.12119924
H        0.00000000       0.00000000       0.00000000      -0.20258932       0.22536781      -0.32322587
H        0.00000000       0.00000000       0.00000000       0.74589660       0.27310781      -0.12784292
H        0.00000000       0.00000000       0.00000000      -0.57826609       0.52434819      -2.04610622
H        0.00000000       0.00000000       0.00000000      -0.28722721      -0.41886052       0.51763589
H        0.00000000       0.00000000       0.00000000      -0.90576877       0.01562662      -0.27245022
H        0.00000000       0.00000000       0.00000000      -0.10029934      -0.38695366      -0.53804206
H        0.00000000       0.00000000       0.00000000      -0.41009519       0.04919374      -0.97622006
H        0.00000000       0.00000000       0.00000000       0.62245110      -0.17853928      -0.22770844
O        0.00000000       0.00000000       0.00000000      -0.31848834      -0.53326794       0.11126797
O        0.00000000       0.00000000       0.00000000       0.27144419      -0.18323234       1.73710283
O        0.00000000       0.00000000       0.00000000       0.92953482       0.25389290       0.96383007
O        0.00000000       0.00000000       0.00000000      -0.08751776       0.05832212       1.30295829
13
Lattice="529.1772105638412 0.0 0.0 0.0 529.1772105638412 0.0 0.0 0.0 529.1772105638412" Properties=species:S:1:pos:R:3:forces_component_raw:R:3 ipi_comment="Step:         320  Bead:       0 forces_component_raw{ase}  cell{ase}" pbc="T T T"
H        0.00000000       0.00000000       0.00000000      -0.31864086      -0.75022420       0.05582689
H        0.00000000       0.00000000       0.00000000      -0.26098114      -0.33780150       0.69025499
H        0.00000000       0.00000000       0.00000000      -0.80247190       0.12170268       0.40763872
H        0.00000000       0.00000000       0.00000000      -0.23741452       0.62575842      -1.25526214
H        0.00000000       0.00000000       0.00000000       0.75381331       0.43592554      -0.46289521
H        0.00000000       0.00000000       0.00000000      -1.51613370       0.02167038      -0.51905008
H        0.00000000       0.00000000       0.00000000      -0.28011572      -0.26293710      -0.47693035
H        0.00000000       0.00000000       0.00000000      -0.68919319       0.62831582      -1.10720961
H        0.00000000       0.00000000       0.00000000       0.64609516      -0.24013707       0.08560787
O        0.00000000       0.00000000       0.00000000      -0.16063907       0.12654861       0.02783613
O        0.00000000       0.00000000       0.00000000      -0.17719688      -1.13477651       1.71108347
O        0.00000000       0.00000000       0.00000000       2.37187041       0.32732205       1.05943870
O        0.00000000       0.00000000       0.00000000       0.67100811       0.43863289      -0.21633938
13
Lattice="529.1772105638412 0.0 0.0 0.0 529.1772105638412 0.0 0.0 0.0 529.1772105638412" Properties=species:S:1:pos:R:3:forces_component_raw:R:3 ipi_comment="Step:         340  Bead:       0 forces_component_raw{ase}  cell{ase}" pbc="T T T"
H        0.00000000       0.00000000       0.00000000       0.10164208      -0.13604430       0.39707142
H        0.00000000       0.00000000       0.00000000      -0.06646061       0.77791887      -0.20851957
H        0.00000000       0.00000000       0.00000000      -0.17336621      -0.62983834      -0.03653620
H        0.00000000       0.00000000       0.00000000       0.82458780       0.09012522      -0.45526805
H        0.00000000       0.00000000       0.00000000       1.14641639       0.16172250      -0.71243899
H        0.00000000       0.00000000       0.00000000      -1.11901421       0.65883312      -0.02000541
H        0.00000000       0.00000000       0.00000000      -0.39607577       0.41519238       0.10039994
H        0.00000000       0.00000000       0.00000000      -0.37977297       0.53023609      -0.92948368
H        0.00000000       0.00000000       0.00000000       1.07542790      -0.20415401      -0.67418765
O        0.00000000       0.00000000       0.00000000      -0.04211518       0.40985623      -0.05506079
O        0.00000000       0.00000000       0.00000000      -2.34368200      -0.06246424       1.51517357
O        0.00000000       0.00000000       0.00000000       1.68448671      -1.52846916      -0.27482495
O        0.00000000       0.00000000       0.00000000      -0.31207393      -0.48291436       1.35368036
13
Lattice="529.1772105638412 0.0 0.0 0.0 529.1772105638412 0.0 0.0 0.0 529.1772105638412" Properties=species:S:1:pos:R:3:forces_component_raw:R:3 ipi_comment="Step:         360  Bead:       0 forces_component_raw{ase}  cell{ase}" pbc="T T T"
H        0.00000000       0.00000000       0.00000000      -0.03456181      -0.47511147      -0.48295211
H        0.00000000       0.00000000       0.00000000       0.46796953      -0.34487040      -0.31283602
H        0.00000000       0.00000000       0.00000000      -0.58137627       0.58415227       0.02577960
H        0.00000000       0.00000000       0.00000000       0.73876966      -0.45293828       0.47021605
H        0.00000000       0.00000000       0.00000000       0.43832847       0.00686060      -0.92143412
H        0.00000000       0.00000000       0.00000000      -0.15593409      -0.44461869      -0.12448662
H        0.00000000       0.00000000       0.00000000       0.61866266       1.02779030       0.53905847