13
Lattice="529.1772105638412 0.0 0.0 0.0 529.1772105638412 0.0 0.0 0.0 529.1772105638412" Properties=species:S:1:pos:R:3:forces_component_raw:R:3 ipi_comment="Step:           0  Bead:       0 forces_component_raw{ase}  cell{ase}" pbc="T T T"
H        0.00000000       0.00000000       0.00000000      -0.62964888       1.86802604      -0.02529698
H        0.00000000       0.00000000       0.00000000       0.06653557       0.08052715      -0.02813913
H        0.00000000       0.00000000       0.00000000       2.33237189      -0.55992167       0.13723657
H        0.00000000       0.00000000       0.00000000       0.50634230      -0.35995773       0.34182229
H        0.00000000       0.00000000       0.00000000       0.45743715      -0.27052443       0.13997326
H        0.00000000       0.00000000       0.00000000      -0.04602690       0.26919497      -0.76334946
H        0.00000000       0.00000000       0.00000000       0.12893530      -0.70595824      -0.30989102
H        0.00000000       0.00000000       0.00000000       0.02232613       0.07131516      -0.20293041
H        0.00000000       0.00000000       0.00000000      -0.49595269      -0.18621035      -0.18201199
O        0.00000000       0.00000000       0.00000000      -1.77364779      -1.49002680      -0.01791209
O        0.00000000       0.00000000       0.00000000      -0.69156074       0.35575784      -0.36452197
O        0.00000000       0.00000000       0.00000000      -0.46351006       0.67794687       1.00524291
O        0.00000000       0.00000000       0.00000000       0.58639871       0.24983120       0.26977801
13
Lattice="529.1772105638412 0.0 0.0 0.0 529.1772105638412 0.0 0.0 0.0 529.1772105638412" Properties=species:S:1:pos:R:3:forces_component_raw:R:3 ipi_comment="Step:          20  Bead:       0 forces_component_raw{ase}  cell{ase}" pbc="T T T"
H        0.00000000       0.00000000       0.00000000      -0.19510446      -5.68673974       0.09710586
H        0.00000000       0.00000000       0.00000000      -0.46441123      -0.27142711       0.93539005
H        0.00000000       0.00000000       0.00000000      -7.12142662      -0.55906526       0.92521664
H        0.00000000       0.00000000       0.00000000      -0.30759814      -1.43287293      -0.29347852
H        0.00000000       0.00000000       0.00000000      -1.13234906       0.09174545      -0.48311555
H        0.00000000       0.00000000       0.00000000      -0.04662619      -0.25313766      -0.56556338
H        0.00000000       0.00000000       0.00000000       0.23000354      -0.17524470      -0.40377961
H        0.00000000       0.00000000       0.00000000       0.69402187       0.02114141       0.72865397
H        0.00000000       0.00000000       0.00000000       0.17575871       0.27217415      -0.54147799
O        0.00000000       0.00000000       0.00000000      -0.64815587      -1.04987741       1.16412473
O        0.00000000       0.00000000       0.00000000       7.51549452       1.61132272       0.11608053
O        0.00000000       0.00000000       0.00000000       0.08539947       5.72154976       1.09137715
O        0.00000000       0.00000000       0.00000000       1.21499347       1.71043132      -2.77053389
13
Lattice="529.1772105638412 0.0 0.0 0.0 529.1772105638412 0.0 0.0 0.0 529.1772105638412" Properties=species:S:1:pos:R:3:forces_component_raw:R:3 ipi_comment="Step:          40  Bead:       0 forces_component_raw{ase}  cell{ase}" pbc="T T T"
H        0.00000000       0.00000000       0.00000000      -0.54025078       2.13553841      -0.09850691
H        0.00000000       0.00000000       0.00000000      -0.95483540      -1.35784157       1.16360158
H        0.00000000       0.00000000       0.00000000       1.00468170      -0.69393465      -0.42168442
H        0.00000000       0.00000000       0.00000000       0.72614408      -0.55601937      -0.03357370
H        0.00000000       0.00000000       0.00000000      -0.62202014      -1.29198705      -0.50327428
H        0.00000000       0.00000000       0.00000000       0.11643034      -0.58519920       0.12471593
H        0.00000000       0.00000000       0.00000000      -0.00424564      -0.47631564       0.26325997
H        0.00000000       0.00000000       0.00000000       0.80868381      -0.21930336       1.19977165
H        0.00000000       0.00000000       0.00000000       0.29318151       0.36904148      -0.14414106
O        0.00000000       0.00000000       0.00000000       0.62137477       0.66762643       0.41997990
O        0.00000000       0.00000000       0.00000000      -0.85838688       1.83795011       0.67927484
O        0.00000000       0.00000000       0.00000000      -0.17331397      -0.66421075      -0.48324560
O        0.00000000       0.00000000       0.00000000      -0.41744339       0.83465516      -2.16617790
13
Lattice="529.1772105638412 0.0 0.0 0.0 529.1772105638412 0.0 0.0 0.0 529.1772105638412" Properties=species:S:1:pos:R:3:forces_component_raw:R:3 ipi_comment="Step:          60  Bead:       0 forces_component_raw{ase}  cell{ase}" pbc="T T T"
H        0.00000000       0.00000000       0.00000000      -0.14200282       1.84699402       0.34747677
H        0.00000000       0.00000000       0.00000000      -1.17835332      -0.77474987       0.94160893
H        0.00000000       0.00000000       0.00000000       2.59001997      -0.21524467      -0.02180006
H        0.00000000       0.00000000       0.00000000      -0.51975720      -0.38894132      -0.27784720
H        0.00000000       0.00000000       0.00000000      -0.66364908       0.61479136       0.35018766
H        0.00000000       0.00000000       0.00000000      -0.09688056       0.49117690       0.73276729
H        0.00000000       0.00000000       0.00000000      -0.19423080       0.42232157      -0.14026268
H        0.00000000       0.00000000       0.00000000      -0.29130731      -0.84625687       0.49066298
H        0.00000000       0.00000000       0.00000000       0.52168901      -0.22695633       0.84759286
O        0.00000000       0.00000000       0.00000000      -1.14872239       0.02760461      -0.37530515
O        0.00000000       0.00000000       0.00000000       0.81183198      -0.35906613      -0.27474262
O        0.00000000       0.00000000       0.00000000       0.10858959      -1.87429339      -0.99861690
O        0.00000000       0.00000000       0.00000000       0.20277293       1.28262011      -1.62172189
13
Lattice="529.1772105638412 0.0 0.0 0.0 529.1772105638412 0.0 0.0 0.0 529.1772105638412" Properties=species:S:1:pos:R:3:forces_component_raw:R:3 ipi_comment="Step:          80  Bead:       0 forces_component_raw{ase}  cell{ase}" pbc="T T T"
H        0.00000000       0.00000000       0.00000000       0.43543754      -3.53640667      -0.16704938
H        0.00000000       0.00000000       0.00000000       2.32010376       2.83351238      -3.64532564
H        0.00000000       0.00000000       0.00000000      -3.83481029       0.27991740       0.41156330
H        0.00000000       0.00000000       0.00000000      -0.26016907       0.35457621       0.32934223
H        0.00000000       0.00000000       0.00000000       0.20725244       0.17359365       0.08953385
H        0.00000000       0.00000000       0.00000000       0.63388248      -1.34810714       0.28136487
H        0.00000000       0.00000000       0.00000000       0.11645465      -0.08339601       0.79643862
H        0.00000000       0.00000000       0.00000000       0.68460799       1.53431454      -0.11389737
H        0.00000000       0.00000000       0.00000000      -0.30089077       1.37620568      -1.01213330
O        0.00000000       0.00000000       0.00000000      -0.03712828       0.03078814       1.23195705
O        0.00000000       0.00000000       0.00000000       2.52809055      -0.75349520      -0.50601950
O        0.00000000       0.00000000       0.00000000      -0.91516443       2.97328197      -0.60824804
O        0.00000000       0.00000000       0.00000000      -1.57766658      -3.83478496       2.91247331
13
Lattice="529.1772105638412 0.0 0.0 0.0 529.1772105638412 0.0 0.0 0.0 529.1772105638412" Properties=species:S:1:pos:R:3:forces_component_raw:R:3 ipi_comment="Step:         100  Bead:       0 forces_component_raw{ase}  cell{ase}" pbc="T T T"
H        0.00000000       0.00000000       0.00000000      -0.18382524       1.14964699      -0.17182490
H        0.00000000       0.00000000       0.00000000      -0.42601292      -0.90136407       1.06581147
H        0.00000000       0.00000000       0.00000000       1.98691520      -0.21680992      -0.88192775
H        0.00000000       0.00000000       0.00000000      -1.40834820      -0.20807498       0.50885283
H        0.00000000       0.00000000       0.00000000      -0.23553485       0.44326611       0.82944041
H        0.00000000       0.00000000       0.00000000       0.42673536      -0.11683847       0.92411395
H        0.00000000       0.00000000       0.00000000       0.14214825      -0.20952804       0.01101648
H        0.00000000       0.00000000       0.00000000      -1.13611305      -0.15862085      -0.72506225
H        0.00000000       0.00000000       0.00000000      -0.14606265      -0.85404801       0.68917902
O        0.00000000       0.00000000       0.00000000      -1.01622373       0.96518742       0.54053805
O        0.00000000       0.00000000       0.00000000       1.03013951      -0.19880957      -0.73799383
O        0.00000000       0.00000000       0.00000000      -0.51188584      -0.74993392      -1.28155779
O        0.00000000       0.00000000       0.00000000       1.47806817       1.05592732      -0.77058567
13
Lattice="529.1772105638412 0.0 0.0 0.0 529.1772105638412 0.0 0.0 0.0 529.1772105638412" Properties=species:S:1:pos:R:3:forces_component_raw:R:3 ipi_comment="Step:         120  Bead:       0 forces_component_raw{ase}  cell{ase}" pbc="T T T"
H        0.00000000       0.00000000       0.00000000      -0.69513633       1.91736656      -1.07798156
H        0.00000000       0.00000000       0.00000000      -1.71545962      -2.09103492       1.06431114
H        0.00000000       0.00000000       0.00000000       1.48565827      -0.26631322       1.05469484
H        0.00000000       0.00000000       0.00000000       0.81203280       0.53580700       1.53566852
H        0.00000000       0.00000000       0.00000000       0.28479298      -0.18295541      -0.71981156
H        0.00000000       0.00000000       0.00000000       0.31035272      -0.48993391       0.23120186
H        0.00000000       0.00000000       0.00000000       0.27830524      -0.32401778       0.04377274
H        0.00000000       0.00000000       0.00000000      -0.34973074       0.74154839      -0.41452292
H        0.00000000       0.00000000       0.00000000      -0.44972501      -0.21627122      -0.55191528
O        0.00000000       0.00000000       0.00000000      -0.22785607      -0.03485226       1.08714700
O        0.00000000       0.00000000       0.00000000      -1.44428792      -0.53657432      -1.90339156
O        0.00000000       0.00000000       0.00000000      -0.50834556       0.34243729      -0.06042817
O        0.00000000       0.00000000       0.00000000       2.21939925       0.60479381      -0.28874506
13
Lattice="529.1772105638412 0.0 0.0 0.0 529.1772105638412 0.0 0.0 0.0 529.1772105638412" Properties=species:S:1:pos:R:3:forces_component_raw:R:3 ipi_comment="Step:         140  Bead:       0 forces_component_raw{ase}  cell{ase}" pbc="T T T"
H        0.00000000       0.00000000       0.00000000      -0.15520364       0.12613642       0.20213719
H        0.00000000       0.00000000       0.00000000       0.31304820       0.49087063       1.17617415
H        0.00000000       0.00000000       0.00000000       0.97353777      -1.11213349      -0.98140982
H        0.00000000       0.00000000       0.00000000      -1.03694100      -0.29625131       0.39121026
H        0.00000000       0.00000000       0.00000000       0.01895422      -0.24342560       0.37843347
H        0.00000000       0.00000000       0.00000000      -0.22042429       0.53697392      -0.15965301
H        0.00000000       0.00000000       0.00000000       0.00426952      -0.07571298      -0.65590339
H        0.00000000       0.00000000       0.00000000      -0.01524396       0.18734688      -0.82029822
H        0.00000000       0.00000000       0.00000000      -0.59364901      -0.37532309       0.69736318
O        0.00000000       0.00000000       0.00000000       0.22390583      -0.33393186       0.76104590
O        0.00000000       0.00000000       0.00000000       0.17345661       1.11504892      -0.15127601
O        0.00000000       0.00000000       0.00000000       0.00601500       0.15539769       0.49388509
O        0.00000000       0.00000000       0.00000000       0.30827475      -0.17499613      -1.33170880
13
Lattice="529.1772105638412 0.0 0.0 0.0 529.1772105638412 0.0 0.0 0.0 529.1772105638412" Properties=species:S:1:pos:R:3:forces_component_raw:R:3 ipi_comment="Step:         160  Bead:       0 forces_component_raw{ase}  cell{ase}" pbc="T T T"
H        0.00000000       0.00000000       0.00000000       0.37221425      -0.55115690       0.12737618
H        0.00000000       0.00000000       0.00000000      -1.21146195      -0.14869177      -0.61410670
H        0.00000000       0.00000000       0.00000000      -0.09239928       0.67724351       0.30809936
H        0.00000000       0.00000000       0.00000000      -0.10452501      -0.08456891      -0.16951167
H        0.00000000       0.00000000       0.00000000      -0.70766376      -0.20524756      -0.14307943
H        0.00000000       0.00000000       0.00000000       0.14140510      -0.74575672      -0.96557207
H        0.00000000       0.00000000       0.00000000       0.27840222      -1.29678151       0.17229899
H        0.00000000       0.00000000       0.00000000       0.04385104       0.12046588       0.15261184
H        0.00000000       0.00000000       0.00000000      -0.12903162       0.04292020      -0.81333843
O        0.00000000       0.00000000       0.00000000       1.26823438      -0.73364058       0.39875215
O        0.00000000       0.00000000       0.00000000      -0.10755430       0.01811690      -0.14983126
O        0.00000000       0.00000000       0.00000000      -0.67833758       2.85582154       0.68710657
O        0.00000000       0.00000000       0.00000000       0.92686652       0.05127591       1.00919446
13
Lattice="529.1772105638412 0.0 0.0 0.0 529.1772105638412 0.0 0.0 0.0 529.1772105638412" Properties=species:S:1:pos:R:3:forces_component_raw:R:3 ipi_comment="Step:         180  Bead:       0 forces_component_raw{ase}  cell{ase}" pbc="T T T"
H        0.00000000       0.00000000       0.00000000       0.01139734       0.20133606      -0.73379247
H        0.00000000       0.00000000       0.00000000       0.65665544      -0.77408249       1.40036301
H        0.00000000       0.00000000       0.00000000      -2.57452570       0.33240000      -0.63955128
H        0.00000000       0.00000000       0.00000000       0.48558449       0.39615820      -1.14148991
H        0.00000000       0.00000000       0.00000000       0.28982656      -0.13041599      -0.35876748
H        0.00000000       0.00000000       0.00000000       0.02327213       0.04446360       0.35159898
H        0.00000000       0.00000000       0.00000000      -0.04906020       0.12761685      -0.98436855
H        0.00000000       0.00000000       0.00000000       0.79267157       0.32722390       0.70857271
H        0.00000000       0.00000000       0.00000000       0.33908006       0.14215876      -0.33288152
O        0.00000000       0.00000000       0.00000000       0.12516793       0.31507679      -0.64207604
O        0.00000000       0.00000000       0.00000000       1.56408424      -0.58067230       1.97921406
O        0.00000000       0.00000000       0.00000000       0.07527587      -0.02660929       1.15805517
O        0.00000000       0.00000000       0.00000000      -1.73942973      -0.37465408      -0.76487667
13
Lattice="529.1772105638412 0.0 0.0 0.0 529.1772105638412 0.0 0.0 0.0 529.1772105638412" Properties=species:S:1:pos:R:3:forces_component_raw:R:3 ipi_comment="Step:         200  Bead:       0 forces_component_raw{ase}  cell{ase}" pbc="T T T"
H        0.00000000       0.00000000       0.00000000      -0.79320812       1.66101801       0.39407727
H        0.00000000       0.00000000       0.00000000      -1.41354206      -0.30720154       0.26083291
H        0.00000000       0.00000000       0.00000000       1.39644521      -0.87388082      -0.17014867
H        0.00000000       0.00000000       0.00000000       0.38669952       0.40860601      -1.03765996
H        0.00000000       0.00000000       0.00000000      -0.67182114      -0.14928291      -0.17810104
H        0.00000000       0.00000000       0.00000000       0.00400314      -0.19143713       0.04330579
H        0.00000000       0.00000000       0.00000000       0.23076849      -0.56641891       0.33492938
H        0.00000000       0.00000000       0.00000000       0.34289258       0.33117437       1.29875819
H        0.00000000       0.00000000       0.00000000       1.13563443       0.26215203      -0.49558835
O        0.00000000       0.00000000       0.00000000      -0.27172573       0.83455223       0.04624619
O        0.00000000       0.00000000       0.00000000       0.08105946       0.11235530       1.08023038
O        0.00000000       0.00000000       0.00000000       0.34176858      -1.02888934      -0.85739386
O        0.00000000       0.00000000       0.00000000      -0.76897437      -0.49274729      -0.71948822
13
Lattice="529.1772105638412 0.0 0.0 0.0 529.1772105638412 0.0 0.0 0.0 529.1772105638412" Properties=species:S:1:pos:R:3:forces_component_raw:R:3 ipi_comment="Step:         220  Bead:       0 forces_component_raw{ase}  cell{ase}" pbc="T T T"
H        0.00000000       0.00000000       0.00000000      -0.64080830       2.00908505      -1.23692870
H        0.00000000       0.00000000       0.00000000      -0.25451094      -0.10052656       1.12094217
H        0.00000000       0.00000000       0.00000000       1.31785108      -0.01128119      -0.15854079
H        0.00000000       0.00000000       0.00000000       0.33207006       0.45502186      -0.52150047
H        0.00000000       0.00000000       0.00000000      -0.12299884      -0.00708606      -0.01589548
H        0.00000000       0.00000000       0.00000000       0.22644200       0.04828029       0.83597546
H        0.00000000       0.00000000       0.00000000       0.04225975       0.83117142      -0.16231612
H        0.00000000       0.00000000       0.00000000       0.30095749      -0.08702907      -0.14060128
H        0.00000000       0.00000000       0.00000000       1.05123445      -0.43314734       0.38997402
O        0.00000000       0.00000000       0.00000000      -0.59369610       0.61247500       0.04241642
O        0.00000000       0.00000000       0.00000000      -0.44217443      -0.61907961       0.47063727
O        0.00000000       0.00000000       0.00000000       0.39447537      -3.02778107       0.16160829
O        0.00000000       0.00000000       0.00000000      -1.61110159       0.32989729      -0.78577078
13
Lattice="529.1772105638412 0.0 0.0 0.0 529.1772105638412 0.0 0.0 0.0 529.1772105638412" Properties=species:S:1:pos:R:3:forces_component_raw:R:3 ipi_comment="Step:         240  Bead:       0 forces_component_raw{ase}  cell{ase}" pbc="T T T"
H        0.00000000       0.00000000       0.00000000      -0.08136474       0.54595053       0.16459051
H        0.00000000       0.00000000       0.00000000      -1.40008916      -1.30323248       1.20841749
H        0.00000000       0.00000000       0.00000000      -1.42423139       0.42963973      -0.41724822
H        0.00000000       0.00000000       0.00000000       0.13935496       0.01284198       0.01952863
H        0.00000000       0.00000000       0.00000000       0.59738767      -0.45032341       0.64764393
H        0.00000000       0.00000000       0.00000000      -0.31673988      -0.05190707       0.43380344
H        0.00000000       0.00000000       0.00000000       0.21099679       0.14223289       0.50373162
H        0.00000000       0.00000000       0.00000000       0.26893135      -0.50037542      -0.66586604
H        0.00000000       0.00000000       0.00000000       0.88971598      -0.34221616      -0.02948304
O        0.00000000       0.00000000       0.00000000      -0.32070788       0.77798458       0.37925548
O        0.00000000       0.00000000       0.00000000       1.54959213      -0.06146538      -0.64538215
O        0.00000000       0.00000000       0.00000000       0.35950766      -0.48582282      -1.49544708
O        0.00000000       0.00000000       0.00000000      -0.47235351       1.28669301      -0.10354455
13
Lattice="529.1772105638412 0.0 0.0 0.0 529.1772105638412 0.0 0.0 0.0 529.1772105638412" Properties=species:S:1:pos:R:3:forces_component_raw:R:3 ipi_comment="Step:         260  Bead:       0 forces_component_raw{ase}  cell{ase}" pbc="T T T"
H        0.00000000       0.00000000       0.00000000      -0.13049153      -1.19453407      -0.29567970
H        0.00000000       0.00000000       0.00000000      -0.47508587       0.12718810      -0.48453535
H        0.00000000       0.00000000       0.00000000       0.42314393      -0.82619834       0.08968207
H        0.00000000       0.00000000       0.00000000      -0.51888458      -0.08842887      -0.19419379
H        0.00000000       0.00000000       0.00000000      -0.34524216      -0.82718127       0.82139396
H        0.00000000       0.00000000       0.00000000      -0.19493723      -0.30138892       0.01894536
H        0.00000000       0.00000000       0.00000000       0.21869024       0.80714164       0.72982525
H        0.00000000       0.00000000       0.00000000       0.48177721      -0.64722993      -1.70312314
H        0.00000000       0.00000000       0.00000000      -0.03544266      -0.18093990      -0.43233185
O        0.00000000       0.00000000       0.00000000       0.38533472      -0.00283978       1.57802678
O        0.00000000       0.00000000       0.00000000       0.01047135       1.73132857      -0.98507084
O        0.00000000       0.00000000       0.00000000       0.17101180       0.58941770      -0.58339320
O        0.00000000       0.00000000       0.00000000       0.00965478       0.81366507       1.44045445
13
Lattice="529.1772105638412 0.0 0.0 0.0 529.1772105638412 0.0 0.0 0.0 529.1772105638412" Properties=species:S:1:pos:R:3:forces_component_raw:R:3 ipi_comment="Step:         280  Bead:       0 forces_component_raw{ase}  cell{ase}" pbc="T T T"
H        0.00000000       0.00000000       0.00000000       0.16486772       1.17356478      -0.38528648
H        0.00000000       0.00000000       0.00000000      -0.39673557      -0.41698867       1.23159544
H        0.00000000       0.00000000       0.00000000       1.25534461       0.86089546      -0.67962603
H        0.00000000       0.00000000       0.00000000      -0.72309229      -1.03001181       0.45174051
H        0.00000000       0.00000000       0.00000000       1.43564878      -0.56897962       0.56319505
H        0.00000000       0.00000000       0.00000000      -0.01414096      -0.01392211      -0.25410112
H        0.00000000       0.00000000       0.00000000       0.41345959       0.31422272       0.36575659
H        0.00000000       0.00000000       0.00000000      -0.57472637      -0.97307433      -2.17282920
H        0.00000000       0.00000000       0.00000000       0.16287966       0.06066995       0.08850794
O        0.00000000       0.00000000       0.00000000       0.64765908      -0.79734002      -0.46939977
O        0.00000000       0.00000000       0.00000000      -2.14122421       0.93591771      -0.46052106
O        0.00000000       0.00000000       0.00000000      -0.57709053      -0.30401758      -0.18955858
O        0.00000000       0.00000000       0.00000000       0.34715048       0.75906352       1.91052673
13
Lattice="529.1772105638412 0.0 0.0 0.0 529.1772105638412 0.0 0.0 0.0 529.1772105638412" Properties=species:S:1:pos:R:3:forces_component_raw:R:3 ipi_comment="Step:         300  Bead:       0 forces_component_raw{ase}  cell{ase}" pbc="T T T"
H        0.00000000       0.00000000       0.00000000      -0.82063285       2.00298215      -1.08844588
H        0.00000000       0.00000000       0.00000000      -1.21493968      -1.16021591       0.77959868
H        0.00000000       0.00000000       0.00000000       1.42098533      -1.76012065      -0.12648007
H        0.00000000       0.00000000       0.00000000      -0.12695992      -0.85334770      -0.48686021
H        0.00000000       0.00000000       0.00000000      -0.53976005      -0.47717202       0.19686629
H        0.00000000       0.00000000       0.00000000      -0.12403973      -0.32098298      -0.42794892
H        0.00000000       0.00000000       0.00000000       0.32299895       0.27986241       0.46432497
H        0.00000000       0.00000000       0.00000000      -0.92467787      -0.66832650      -1.49252388
H        0.00000000       0.00000000       0.00000000       0.14776970       0.06532376      -0.74262453
O        0.00000000       0.00000000       0.00000000       0.95018682      -1.03344940       0.14989970
O        0.00000000       0.00000000       0.00000000      -0.28019354       2.69626473       0.19251768
O        0.00000000       0.00000000       0.00000000      -0.12465934       0.20548595       0.17790111
O        0.00000000       0.00000000       0.00000000       1.31392218       1.02369616       2.40377505
13
Lattice="529.1772105638412 0.0 0.0 0.0 529.1772105638412 0.0 0.0 0.0 529.1772105638412" Properties=species:S:1:pos:R:3:forces_component_raw:R:3 ipi_comment="Step:         320  Bead:       0 forces_component_raw{ase}  cell{ase}" pbc="T T T"
H        0.00000000       0.00000000       0.00000000      -0.15087876      -0.29685382       0.41487516
H        0.00000000       0.00000000       0.00000000      -0.23730454       0.63039055       1.23732427
H        0.00000000       0.00000000       0.00000000       0.47727301       1.48558389      -1.00502728
H        0.00000000       0.00000000       0.00000000      -0.24975133      -0.38979256       0.11783840
H        0.00000000       0.00000000       0.00000000       0.95603357       0.49280309      -0.29879777
H        0.00000000       0.00000000       0.00000000      -0.51179435       0.58300534      -0.90626831
H        0.00000000       0.00000000       0.00000000       0.06367985       0.41782479      -0.06701752
H        0.00000000       0.00000000       0.00000000      -0.90175456      -0.55348504      -1.08688357
H        0.00000000       0.00000000       0.00000000       0.53618245       0.82454843       0.26952290
O        0.00000000       0.00000000       0.00000000      -0.43384030      -0.93755453       0.18307305
O        0.00000000       0.00000000       0.00000000      -0.06771628      -1.40667977       0.65093874
O        0.00000000       0.00000000       0.00000000       0.27390643      -0.10681044       0.44512476
O        0.00000000       0.00000000       0.00000000       0.24596482      -0.74297994       0.04529716
13
Lattice="529.1772105638412 0.0 0.0 0.0 529.1772105638412 0.0 0.0 0.0 529.1772105638412" Properties=species:S:1:pos:R:3:forces_component_raw:R:3 ipi_comment="Step:         340  Bead:       0 forces_component_raw{ase}  cell{ase}" pbc="T T T"
H        0.00000000       0.00000000       0.00000000      -0.30971238       0.91055063      -0.76287893
H        0.00000000       0.00000000       0.00000000      -0.37537776      -0.78723302      -0.73921744
H        0.00000000       0.00000000       0.00000000       0.17352518      -1.48838361       0.17264244
H        0.00000000       0.00000000       0.00000000       0.13031780       0.59008218      -0.04907288
H        0.00000000       0.00000000       0.00000000      -1.06801154       0.92306097      -0.57495701
H        0.00000000       0.00000000       0.00000000      -0.32206415      -0.42420868      -0.38616382
H        0.00000000       0.00000000       0.00000000       0.24311655      -0.46402350       0.45165389
H        0.00000000       0.00000000       0.00000000      -0.46251241       0.53931755       0.07381812
H        0.00000000       0.00000000       0.00000000       0.05536741       1.14307669      -0.91082201
O        0.00000000       0.00000000       0.00000000      -0.96550836       1.43501980      -0.10530709
O        0.00000000       0.00000000       0.00000000       2.26578870      -1.09520993       0.43303491
O        0.00000000       0.00000000       0.00000000       0.21819752       0.16242935       0.19275561
O        0.00000000       0.00000000       0.00000000       0.41687345      -1.44447842       2.20451421
13
Lattice="529.1772105638412 0.0 0.0 0.0 529.1772105638412 0.0 0.0 0.0 529.1772105638412" Properties=species:S:1:pos:R:3:forces_component_raw:R:3 ipi_comment="Step:         360  Bead:       0 forces_component_raw{ase}  cell{ase}" pbc="T T T"
H        0.00000000       0.00000000       0.00000000       0.18903417      -0.59481844       0.04202221
H        0.00000000       0.00000000       0.00000000       0.55833645       0.84065247       0.03893810
H        0.00000000       0.00000000       0.00000000      -2.61603425       1.67191428       0.33668951
H        0.00000000       0.00000000       0.00000000       0.32065507       0.56729842       0.44636635
H        0.00000000       0.00000000       0.00000000       0.34070798       1.15594646      -0.13288704
H        0.00000000       0.00000000       0.00000000       0.16498281       0.26874564       0.11061173
H        0.00000000       0.00000000       0.00000000      -0.51265468      -0.25264357      -0.36398673