13
Lattice="529.1772105638412 0.0 0.0 0.0 529.1772105638412 0.0 0.0 0.0 529.1772105638412" Properties=species:S:1:pos:R:3 ipi_comment="Step:           0  Bead:       0 positions{ase}  cell{ase}" pbc="T T T"
H       -0.17162402       0.99555316       0.00473486
H       -0.53842585      -0.53583351       0.71223619
H        0.99859320      -0.10609560       0.09269124
H        2.95167916      -0.72799353       0.41628544
H        2.82399961       0.82332379       0.38936683
H       -0.06136288       2.93153118      -0.83804214
H       -0.21663176       3.15665531       0.67757749
H       -0.96483947      -1.54127569       2.74271215
H       -2.14579432      -1.86554619       1.81526214
O        0.00000000       0.00000000       0.00000000
O        2.48154349       0.00000000       0.00000000
O       -0.00570156       2.46453243       0.00000000
O       -1.28149480      -1.43613888       1.82246890
13
Lattice="529.1772105638412 0.0 0.0 0.0 529.1772105638412 0.0 0.0 0.0 529.1772105638412" Properties=species:S:1:pos:R:3 ipi_comment="Step:          20  Bead:       0 positions{ase}  cell{ase}" pbc="T T T"
H       -0.22666556       1.47164246       0.07507234
H       -0.45271360      -0.56699049       0.78203273
H        1.52050586      -0.09003446       0.13392190
H        3.06752460      -0.74815609       0.16116326
H        2.95993294       0.73777053       0.40788831
H       -0.02940068       2.87228124      -0.87291026
H       -0.29615912       2.95083838       0.75148161
H       -0.92845391      -1.56084806       2.72493963
H       -2.08677357      -1.85525471       1.76510529
O       -0.00834020      -0.00168102      -0.01438047
O        2.43681296      -0.02557280       0.01615251
O       -0.02840796       2.39423547      -0.02732105
O       -1.25940984      -1.34368700       1.85331839
13
Lattice="529.1772105638412 0.0 0.0 0.0 529.1772105638412 0.0 0.0 0.0 529.1772105638412" Properties=species:S:1:pos:R:3 ipi_comment="Step:          40  Bead:       0 positions{ase}  cell{ase}" pbc="T T T"
H       -0.14778504       1.11152922      -0.02457117
H       -0.59230916      -0.55509241       0.96584786
H        1.04288116      -0.07333376       0.16255470
H        2.94459265      -0.86659852      -0.15227323
H        3.07468028       0.67785161       0.38782578
H       -0.16408016       2.88652599      -0.87320038
H       -0.40759380       2.99438446       0.64472458
H       -0.87569565      -1.54434529       2.67814162
H       -1.98717299      -1.78486047       1.63411945
O       -0.03937617      -0.05934563       0.00928764
O        2.47890318      -0.05137619       0.03673751
O       -0.05279955       2.38516560      -0.03347011
O       -1.20573236      -1.22814086       1.84706444
13
Lattice="529.1772105638412 0.0 0.0 0.0 529.1772105638412 0.0 0.0 0.0 529.1772105638412" Properties=species:S:1:pos:R:3 ipi_comment="Step:          60  Bead:       0 positions{ase}  cell{ase}" pbc="T T T"
H       -0.12503237       1.31052127      -0.03889676
H       -0.51464371      -0.60546352       0.98076415
H        0.96424437      -0.09247523      -0.02457803
H        2.97135710      -0.80899718      -0.37581245
H        3.25358010       0.41581151       0.39616296
H       -0.24138862       2.78081265      -0.94952070
H       -0.50144180       2.89773489       0.67670580
H       -0.66768838      -1.42659747       2.61486157
H       -1.89893001      -1.67955279       1.47492126
O       -0.04560000      -0.11935007       0.03821706
O        2.47315433      -0.08428061       0.05713916
O       -0.09004484       2.38046186      -0.04796051
O       -1.17872575      -1.12710923       1.85434579
13
Lattice="529.1772105638412 0.0 0.0 0.0 529.1772105638412 0.0 0.0 0.0 529.1772105638412" Properties=species:S:1:pos:R:3 ipi_comment="Step:          80  Bead:       0 positions{ase}  cell{ase}" pbc="T T T"
H       -0.12365890       1.36642727       0.06121678
H       -0.52553935      -0.69191529       1.05728421
H        1.47494683      -0.08034719       0.09567314
H        2.85844825      -0.76409409      -0.61123875
H        3.03203150       0.49570101       0.53150228
H       -0.38236387       2.83543957      -0.93102936
H       -0.62087146       2.86684959       0.62296932
H       -0.67623721      -1.55720831       2.57583598
H       -1.74119729      -1.78552157       1.58083153
O       -0.02853605      -0.15151262       0.01759351
O        2.47054196      -0.14708217       0.05661126
O       -0.12176868       2.38418946      -0.06726462
O       -1.16495032      -1.02916512       1.88040889
13
Lattice="529.1772105638412 0.0 0.0 0.0 529.1772105638412 0.0 0.0 0.0 529.1772105638412" Properties=species:S:1:pos:R:3 ipi_comment="Step:         100  Bead:       0 positions{ase}  cell{ase}" pbc="T T T"
H       -0.09162054       0.98811943      -0.09562927
H       -0.54414175      -0.48524591       1.01415302
H        1.37817903      -0.15735081       0.20242523
H        3.01804579      -0.51599517      -0.71078366
H        3.08267122       0.41336187       0.46973103
H       -0.47832581       2.68859734      -0.96931115
H       -0.66907285       2.90470676       0.59977697
H       -0.51908702      -1.38331306       2.59501077
H       -1.68781836      -1.62274440       1.42816914
O        0.01606313      -0.14506266      -0.01942781
O        2.44888457      -0.20996960       0.06456964
O       -0.15975930       2.38619333      -0.06755288
O       -1.16207834      -0.98385481       1.93808055
13
Lattice="529.1772105638412 0.0 0.0 0.0 529.1772105638412 0.0 0.0 0.0 529.1772105638412" Properties=species:S:1:pos:R:3 ipi_comment="Step:         120  Bead:       0 positions{ase}  cell{ase}" pbc="T T T"
H       -0.08534140       0.98559477       0.04605352
H       -0.40136959      -0.37783483       1.11050069
H        1.35374774      -0.13936105      -0.08718026
H        2.83466455      -0.45200383      -0.84997688
H        2.97177001       0.35510837       0.66441202
H       -0.48731254       2.75602066      -0.93418477
H       -0.64152763       2.86744678       0.60551068
H       -0.61685326      -1.41529110       2.67661336
H       -1.66219768      -1.67000021       1.60259706
O        0.04268147      -0.08745105      -0.07497383
O        2.47860557      -0.26292727       0.07618429
O       -0.20404026       2.32573499      -0.09044572
O       -1.16007112      -0.93306198       1.98595297
13
Lattice="529.1772105638412 0.0 0.0 0.0 529.1772105638412 0.0 0.0 0.0 529.1772105638412" Properties=species:S:1:pos:R:3 ipi_comment="Step:         140  Bead:       0 positions{ase}  cell{ase}" pbc="T T T"
H       -0.21091087       1.17186738      -0.11969911
H       -0.54991371      -0.64776565       1.03664538
H        1.33002736      -0.02663505       0.11852607
H        3.03288094      -0.26429862      -0.78471561
H        2.99702919       0.27102258       0.66132822
H       -0.40747701       2.70572733      -0.96816376
H       -0.52221827       2.77154416       0.70728951
H       -0.67236318      -1.18383464       2.85233741
H       -1.78624160      -1.53922337       1.68924099
O        0.04640473      -0.03217066      -0.08956659
O        2.49903406      -0.33320458       0.06352498
O       -0.26080102       2.28070707      -0.10959609
O       -1.12401155      -0.89500815       2.00977204
13
Lattice="529.1772105638412 0.0 0.0 0.0 529.1772105638412 0.0 0.0 0.0 529.1772105638412" Properties=species:S:1:pos:R:3 ipi_comment="Step:         160  Bead:       0 positions{ase}  cell{ase}" pbc="T T T"
H       -0.24606292       1.19902538      -0.10433772
H       -0.43312625      -0.51331359       1.14713959
H        1.28918599      -0.32119297      -0.02489945
H        2.93910288      -0.18192991      -0.79354868
H        3.08304788       0.02319824       0.78580552
H       -0.45717996       2.87691006      -0.89059084
H       -0.50712572       2.91166781       0.61662263
H       -0.59975213      -0.94794839       2.82237844
H       -1.90994740      -1.39481892       2.07853630
O        0.05196095      -0.05246232      -0.06521080
O        2.51879585      -0.37106716       0.06680250
O       -0.31587523       2.27966408      -0.13214443
O       -1.09093691      -0.86058367       1.97669336
13
Lattice="529.1772105638412 0.0 0.0 0.0 529.1772105638412 0.0 0.0 0.0 529.1772105638412" Properties=species:S:1:pos:R:3 ipi_comment="Step:         180  Bead:       0 positions{ase}  cell{ase}" pbc="T T T"
H       -0.10698349       1.35985550      -0.00444599
H       -0.64877763      -0.33808563       0.71336927
H        1.51110840      -0.23790571       0.15867310
H        2.96001752      -0.15389759      -0.75213141
H        3.00039770      -0.26150261       0.89440214
H       -0.48727253       2.79332886      -1.01979657
H       -0.48623186       2.88782583       0.67811456
H       -0.62831582      -0.71314290       2.83726900
H       -1.94878161      -1.16815913       2.17862026
O        0.08635442      -0.13628424      -0.03353810
O        2.50117173      -0.41168517       0.04936448
O       -0.38382891       2.33894326      -0.15096789
O       -1.04019477      -0.82797824       1.97832294
13
Lattice="529.1772105638412 0.0 0.0 0.0 529.1772105638412 0.0 0.0 0.0 529.1772105638412" Properties=species:S:1:pos:R:3 ipi_comment="Step:         200  Bead:       0 positions{ase}  cell{ase}" pbc="T T T"
H       -0.07684241       1.37100189      -0.12628469
H       -0.40654537      -0.49786465       1.03691838
H        1.22054618      -0.11511925       0.03528578
H        3.04235299      -0.03123579      -0.60966940
H        3.09433545      -0.48489750       0.84551767
H       -0.52765527       2.81347719      -1.04030854
H       -0.46340394       3.08638743       0.53631427
H       -0.59020311      -0.45550815       2.76928273
H       -1.99545612      -0.95221725       2.14340610
O        0.11893447      -0.19331039      -0.03265605
O        2.50017941      -0.46799506       0.04845851
O       -0.44784943       2.38605214      -0.15544284
O       -1.01607644      -0.79739287       1.98871975
13
Lattice="529.1772105638412 0.0 0.0 0.0 529.1772105638412 0.0 0.0 0.0 529.1772105638412" Properties=species:S:1:pos:R:3 ipi_comment="Step:         220  Bead:       0 positions{ase}  cell{ase}" pbc="T T T"
H       -0.18492423       1.30498268       0.02354072
H       -0.43892477      -0.51788975       1.10822659
H        1.21984171      -0.36429596       0.00232757
H        3.08170081       0.02398353      -0.52918241
H        3.00414500      -0.77943036       0.84353290
H       -0.55195813       2.74522896      -1.11372118
H       -0.28630055       2.97589875       0.57298157
H       -0.78546926      -0.27663296       2.87060723
H       -1.96572025      -0.64930280       1.87222628
O        0.13089661      -0.18689404      -0.05390929
O        2.51441278      -0.49857288       0.04375130
O       -0.50461692       2.40290789      -0.18193431
O       -0.97260517      -0.77298273       2.03738658
13
Lattice="529.1772105638412 0.0 0.0 0.0 529.1772105638412 0.0 0.0 0.0 529.1772105638412" Properties=species:S:1:pos:R:3 ipi_comment="Step:         240  Bead:       0 positions{ase}  cell{ase}" pbc="T T T"
H       -0.19981642       1.31397598      -0.21436962
H       -0.19765578      -0.24368921       0.94289070
H        1.55959983      -0.28983427       0.10017409
H        3.16022191       0.05381860      -0.42359900
H        2.92291990      -1.02930261       0.77075872
H       -0.46227299       2.75210348      -1.09368466
H       -0.08362866       2.94258890       0.43019137
H       -0.91458863      -0.24233760       2.96519830
H       -1.87760181      -0.57188831       1.75937696
O        0.09971537      -0.14026218      -0.07354675
O        2.52506885      -0.53763207       0.03983014
O       -0.55321600       2.34500349      -0.18412313
O       -0.95481572      -0.73669413       2.08919260
13
Lattice="529.1772105638412 0.0 0.0 0.0 529.1772105638412 0.0 0.0 0.0 529.1772105638412" Properties=species:S:1:pos:R:3 ipi_comment="Step:         260  Bead:       0 positions{ase}  cell{ase}" pbc="T T T"
H       -0.18919881       1.28504790      -0.20540974
H       -0.27108788      -0.36060498       1.07715781
H        1.52266355      -0.18128116       0.04261346
H        3.27773765       0.05922842      -0.21407948
H        2.97332532      -1.18939501       0.66296868
H       -0.56872190       2.72930122      -1.09388712
H        0.03066316       2.77905298       0.36288357
H       -0.90626888      -0.24612878       3.03293406
H       -1.87950361      -0.70957728       1.86346249
O        0.05932162      -0.06432472      -0.06204981
O        2.56064270      -0.58596148       0.03132489
O       -0.57740534       2.28382850      -0.20695288
O       -0.93099996      -0.67037826       2.09065197
13
Lattice="529.1772105638412 0.0 0.0 0.0 529.1772105638412 0.0 0.0 0.0 529.1772105638412" Properties=species:S:1:pos:R:3 ipi_comment="Step:         280  Bead:       0 positions{ase}  cell{ase}" pbc="T T T"
H       -0.26700670       1.06977424      -0.15452254
H       -0.43864774      -0.33580210       1.09387301
H        1.46168945      -0.43801394       0.08971447
H        3.22394606       0.15435784      -0.08975864
H        2.75473461      -1.35274777       0.61193285
H       -0.72422355       2.58662009      -1.11915291
H       -0.05636779       2.84238357       0.30546205
H       -0.66901024      -0.18337323       2.98259924
H       -1.84604480      -0.93384277       2.07877827
O        0.05716594       0.00319757      -0.01288633
O        2.58106318      -0.61520091       0.01406061
O       -0.57491515       2.22964838      -0.22781030
O       -0.91706882      -0.60683193       2.06258136
13
Lattice="529.1772105638412 0.0 0.0 0.0 529.1772105638412 0.0 0.0 0.0 529.1772105638412" Properties=species:S:1:pos:R:3 ipi_comment="Step:         300  Bead:       0 positions{ase}  cell{ase}" pbc="T T T"
H       -0.11416273       1.08561647      -0.07058551
H       -0.37367296      -0.23763356       1.10714990
H        1.43298779      -0.21832553       0.05797173
H        3.12254132       0.13140270       0.19868314
H        2.92087710      -1.37668124       0.52713407
H       -0.83444227       2.48011633      -1.14041126
H       -0.15966588       2.96076719       0.16194836
H       -0.46718497      -0.20432850       2.91236301
H       -1.66280146      -1.13506460       2.39239806
O        0.10478970       0.02181728       0.00529678
O        2.52726580      -0.65401164      -0.00180617
O       -0.58172238       2.19373750      -0.24920239
O       -0.93089026      -0.55555067       2.05974903
13
Lattice="529.1772105638412 0.0 0.0 0.0 529.1772105638412 0.0 0.0 0.0 529.1772105638412" Properties=species:S:1:pos:R:3 ipi_comment="Step:         320  Bead:       0 positions{ase}  cell{ase}" pbc="T T T"
H       -0.05238817       1.28682319      -0.15679580
H       -0.46120196      -0.43345037       1.02825708
H        1.38564538      -0.48433547       0.17534166
H        3.11150938       0.06793330       0.26360428
H        2.63708551      -1.52099418       0.42607098
H       -0.97078584       2.26224812      -1.16119061
H       -0.23460617       3.03915017       0.10442024
H       -0.36842888      -0.24636229       2.91455022
H       -1.48186790      -1.32931986       2.25692478
O        0.19008529      -0.01102173       0.00419699
O        2.47740283      -0.64204200      -0.00889463
O       -0.59461671       2.21264674      -0.27611430
O       -0.93455795      -0.50040409       2.11346489
13
Lattice="529.1772105638412 0.0 0.0 0.0 529.1772105638412 0.0 0.0 0.0 529.1772105638412" Properties=species:S:1:pos:R:3 ipi_comment="Step:         340  Bead:       0 positions{ase}  cell{ase}" pbc="T T T"
H       -0.19370108       1.23902684      -0.00937489
H       -0.34088922      -0.14983732       1.35919045
H        1.34477913      -0.13752523      -0.04109352
H        3.10246499      -0.09153691       0.41008793
H        2.70351184      -1.58884143       0.28795692
H       -1.06656936       2.33704951      -1.16310935
H       -0.25106120       3.14257888      -0.11074493
H       -0.38593113      -0.40742302       2.97360993
H       -1.22033150      -1.43624784       2.19039625
O        0.24779410      -0.07681805      -0.00382988
O        2.44118778      -0.66197227      -0.00660377
O       -0.61621324       2.23928811      -0.30385016
O       -0.94247628      -0.45804961       2.14405520
13
Lattice="529.1772105638412 0.0 0.0 0.0 529.1772105638412 0.0 0.0 0.0 529.1772105638412" Properties=species:S:1:pos:R:3 ipi_comment="Step:         360  Bead:       0 positions{ase}  cell{ase}" pbc="T T T"
H       -0.17147741       1.29259147      -0.17252782
H       -0.35031806      -0.12084154       1.29794513
H        1.47589175      -0.35942475      -0.03693678
H        3.16961452      -0.20767609       0.49738330
H        2.48746503      -1.67610875       0.08845677
H       -1.18347757       2.29781016      -1.15658738
H       -0.06995575       3.04053587      -0.11843045
H       -0.58698898      -0.36677382       3.11254362
H       -1.04057546      -1.37218209       1.88133924
O        0.21757953      -0.09082361       0.00003686
O        2.47917885      -0.66849006      -0.00436094
O       -0.64540058       2.25295374      -0.33165155
O       -0.92345365      -0.42729367       2.19748420
13
Lattice="529.1772105638412 0.0 0.0 0.0 529.1772105638412 0.0 0.0 0.0 529.1772105638412" Properties=species:S:1:pos:R:3 ipi_comment="Step:         380  Bead:       0 positions{ase}  cell{ase}" pbc="T T T"
H       -0.17908867       1.15334003      -0.28164017
H       -0.29320068       0.00192119       1.44528731
H        1.41722862      -0.23239706       0.24454940
H        3.20929331      -0.41598190       0.63751464
H        2.57531538      -1.69343272      -0.01893087
H       -1.18356504       2.46533768      -1.16494478
H       -0.00840683       2.99227021      -0.31157962
H       -0.61616995      -0.27599426       3.09370992
H       -1.13898101      -1.36472016       2.12252061
O        0.13303071      -0.06800018       0.01714440
O        2.54106357      -0.69418790      -0.01987072
O       -0.65869667       2.22941728      -0.34248855
O       -0.89078523      -0.40733521       2.18320402
13
Lattice="529.1772105638412 0.0 0.0 0.0 529.1772105638412 0.0 0.0 0.0 529.1772105638412" Properties=species:S:1:pos:R:3 ipi_comment="Step:         400  Bead:       0 positions{ase}  cell{ase}" pbc="T T T"
H       -0.37089329       1.15187748      -0.14142178
H       -0.31581833      -0.31500190       1.11816561
H        1.54839027      -0.42917186      -0.00185290
H        3.15023825      -0.48305221       0.74843625
H        2.56453731      -1.67092979      -0.21581635
H       -1.27182477       2.31618848      -1.14652281
H        0.12692355       2.81650390      -0.32595789
H       -0.57150562      -0.08720944       3.06033911
H       -1.21264598      -1.28358397       2.26421235
O        0.08809183      -0.01183783       0.04086942
O        2.56565786      -0.70505381      -0.01158837
O       -0.65048899       2.20018793      -0.36573591
O       -0.87014129      -0.38467237       2.20008062
13
Lattice="529.1772105638412 0.0 0.0 0.0 529.1772105638412 0.0 0.0 0.0 529.1772105638412" Properties=species:S:1:pos:R:3 ipi_comment="Step:         420  Bead:       0 positions{ase}  cell{ase}" pbc="T T T"
H       -0.40781050       1.13274447      -0.05405120
H       -0.31048884      -0.19544932       1.08227788
H        1.52371812      -0.44999797       0.10326694
H        3.03044360      -0.50060673       0.81825516
H        2.84639720      -1.59649798      -0.37890116
H       -1.21263598       2.35216916      -1.20184541
H        0.11313060       2.78497241      -0.57727875
H       -0.42723081       0.08279897       2.92124175
H       -1.34278958      -1.09361039       2.61433368
O        0.07828459      -0.00235839       0.05968860
O        2.55646580      -0.73167026      -0.01625510
O       -0.65814714       2.19093595      -0.37561404
O       -0.85390042      -0.38984217       2.19784023
13
Lattice="529.1772105638412 0.0 0.0 0.0 529.1772105638412 0.0 0.0 0.0 529.1772105638412" Properties=species:S:1:pos:R:3 ipi_comment="Step:         440  Bead:       0 positions{ase}  cell{ase}" pbc="T T T"
H       -0.37786995       1.23249609      -0.30509173
H       -0.33978078      -0.31047174       0.99427125
H        1.43721906      -0.70283852       0.06768403
H        3.06998413      -0.60927672       0.82805364
H        2.92140869      -1.46803367      -0.52291492
H       -1.34874090       2.23527477      -1.16232046
H        0.16146949       2.73111812      -0.62522604
H       -0.36220823       0.22393754       2.80680498
H       -1.44623591      -0.91013986       2.70727557
O        0.10696564      -0.03755392       0.07961834
O        2.52942549      -0.73778909      -0.00270637
O       -0.67599974       2.23588682      -0.40477806
O       -0.83154643      -0.38752753       2.22746996
13
Lattice="529.1772105638412 0.0 0.0 0.0 529.1772105638412 0.0 0.0 0.0 529.1772105638412" Properties=species:S:1:pos:R:3 ipi_comment="Step:         460  Bead:       0 positions{ase}  cell{ase}" pbc="T T T"
H       -0.41964767       1.24312734      -0.12313733
H       -0.38899284      -0.36293504       1.11897267
H        1.39223894      -0.62615192       0.17403759
H        3.06721192      -0.66989435       0.82469237
H        2.84774199      -1.32641703      -0.68657967
H       -1.42076354       2.46418956      -1.08170953
H       -0.00751114       2.90623536      -0.73802499
H       -0.40016559       0.29996355       2.84435763
H       -1.54640646      -0.79265353       2.68609357
O        0.15366117      -0.09120989       0.07277399
O        2.49773148      -0.75518158       0.00993523
O       -0.68350666       2.25206394      -0.45392320
O       -0.80177168      -0.37760307       2.25631648
13
Lattice="529.1772105638412 0.0 0.0 0.0 529.1772105638412 0.0 0.0 0.0 529.1772105638412" Properties=species:S:1:pos:R:3 ipi_comment="Step:         480  Bead:       0 positions{ase}  cell{ase}" pbc="T T T"
H       -0.47040895       1.35103223      -0.20968529
H       -0.27352084      -0.02811070       1.07884597
H        1.49585192      -0.44059611       0.04250103
H        3.15464255      -0.86985103       0.74592144
H        2.83541016      -1.24020775      -0.74613992
H       -1.58983434       2.39033222      -0.86691503
H        0.01566001       2.92246885      -0.65208995
H       -0.52427476       0.28038254       2.98865565
H       -1.65086664      -0.69174226       2.56969667
O        0.16467143      -0.13634896       0.08949700
O        2.46723670      -0.76975237       0.02694208
O       -0.69131304       2.26668498      -0.50689481
O       -0.76622434      -0.36642576       2.27983693
13
Lattice="529.1772105638412 0.0 0.0 0.0 529.1772105638412 0.0 0.0 0.0 529.1772105638412" Properties=species:S:1:pos:R:3 ipi_comment="Step:         500  Bead:       0 positions{ase}  cell{ase}" pbc="T T T"
H       -0.33184067       1.27333886      -0.28238112
H       -0.28528596      -0.21651862       1.18474150
H        1.41938836      -0.38656685       0.17288576
H        3.04051115      -0.94271062       0.82557609
H        2.71733263      -1.15705358      -0.86408320
H       -1.60335525       2.53640544      -0.73946933
H       -0.11440156       3.01360292      -0.68281888
H       -0.58370397       0.18205561       3.15900888
H       -1.68332572      -0.63987067       2.21160217
O        0.15812618      -0.15373829       0.09443704
O        2.48966924      -0.79733597       0.02261224
O       -0.71103591       2.27504383      -0.55078900
O       -0.73609468      -0.32911702       2.32096170
13
Lattice="529.1772105638412 0.0 0.0 0.0 529.1772105638412 0.0 0.0 0.0 529.1772105638412" Properties=species:S:1:pos:R:3 ipi_comment="Step:         520  Bead:       0 positions{ase}  cell{ase}" pbc="T T T"
H       -0.43125942       1.36195873      -0.28165559
H       -0.05499630      -0.08585400       1.16284092
H        1.40231174      -0.70920779       0.19335131
H        3.13570467      -1.20431156       0.66686805
H        2.85871989      -1.20535345      -0.82587463
H       -1.63764862       2.38306312      -0.54830779
H       -0.11701296       2.99424374      -0.67764616
H       -0.70303181       0.09324737       3.24558091
H       -1.70223589      -0.51078397       2.15415435
O        0.10918192      -0.11085935       0.10566960
O        2.49923595      -0.79754525       0.02510680
O       -0.70653279       2.24159634      -0.58751778
O       -0.71226058      -0.30395918       2.33739523
13
Lattice="529.1772105638412 0.0 0.0 0.0 529.1772105638412 0.0 0.0 0.0 529.1772105638412" Properties=species:S:1:pos:R:3 ipi_comment="Step:         540  Bead:       0 positions{ase}  cell{ase}" pbc="T T T"
H       -0.28376602       1.22638040      -0.22270921
H       -0.19767224      -0.09043451       1.23839779
H        1.52009267      -0.70240169       0.09758245
H        2.93416556      -1.31697240       0.77333385
H        2.74648216      -1.08315203      -0.94074353
H       -1.58184225       2.49886961      -0.40650378
H       -0.19850879       3.00126867      -0.60977799
H       -0.60870709       0.10820045       3.26284351
H       -1.67946298      -0.43811506       2.08725428
O        0.08012810      -0.05411425       0.13094139
O        2.53010536      -0.82806606       0.01691882
O       -0.71445077       2.19031293      -0.63051670
O       -0.69987226      -0.28435880       2.35131653
13
Lattice="529.1772105638412 0.0 0.0 0.0 529.1772105638412 0.0 0.0 0.0 529.1772105638412" Properties=species:S:1:pos:R:3 ipi_comment="Step:         560  Bead:       0 positions{ase}  cell{ase}" pbc="T T T"
H       -0.40228466       1.17468295      -0.17616000
H       -0.21640403      -0.13955449       1.29230111
H        1.56962800      -0.39527644       0.17477263
H        2.87557645      -1.54302032       0.61238443
H        2.93107476      -1.13455330      -0.87387677
H       -1.56544727       2.37111128      -0.28441513
H       -0.05318920       2.84031324      -0.58299124
H       -0.44123267       0.23821633       3.16892894
H       -1.70854881      -0.39487616       2.38624263
O        0.07169492       0.02077763       0.15338463
O        2.52777691      -0.85313470       0.00640621
O       -0.72137876       2.14683881      -0.66754672
O       -0.70350264      -0.27895136       2.34885111
13
Lattice="529.1772105638412 0.0 0.0 0.0 529.1772105638412 0.0 0.0 0.0 529.1772105638412" Properties=species:S:1:pos:R:3 ipi_comment="Step:         580  Bead:       0 positions{ase}  cell{ase}" pbc="T T T"
H       -0.36649458       1.14676056      -0.28276450
H       -0.30495248      -0.11456959       1.32233760
H        1.44082717      -0.52996212       0.08321512
H        2.66134086      -1.63261546       0.63765741
H        2.79445854      -0.88926648      -0.95221267
H       -1.50387106       2.53769545      -0.26042583
H       -0.04174121       2.76327792      -0.51083624
H       -0.24878016       0.31758979       3.04001580
H       -1.65365740      -0.39245433       2.64129581
O        0.12439355       0.07476425       0.15062397
O        2.51601715      -0.87415450       0.01337291
O       -0.73959850       2.09830120      -0.70003820
O       -0.71286224      -0.27531432       2.37706751
13
Lattice="529.1772105638412 0.0 0.0 0.0 529.1772105638412 0.0 0.0 0.0 529.1772105638412" Properties=species:S:1:pos:R:3 ipi_comment="Step:         600  Bead:       0 positions{ase}  cell{ase}" pbc="T T T"
H       -0.56519954       1.15085457      -0.25619939
H       -0.39031759      -0.12906345       1.20385809
H        1.33526269      -0.66241399       0.12279673
H        2.73227301      -1.76726429       0.36244236
H        2.79973124      -0.91075149      -0.89075050
H       -1.58769429       2.50023159      -0.35528637
H        0.02788535       2.70412391      -0.69330487
H       -0.17923311       0.29460540       3.04948532
H       -1.59374059      -0.38467602       2.72779914
O        0.21146072       0.08838605       0.14638976
O        2.44177592      -0.86872537       0.03436007
O       -0.75305101       2.09103123      -0.72265550
O       -0.69975065      -0.26121266       2.41112247
13
Lattice="529.1772105638412 0.0 0.0 0.0 529.1772105638412 0.0 0.0 0.0 529.1772105638412" Properties=species:S:1:pos:R:3 ipi_comment="Step:         620  Bead:       0 positions{ase}  cell{ase}" pbc="T T T"
H       -0.47439833       1.17744765      -0.22995731
H       -0.14936740      -0.13735667       1.35475538
H        1.42175636      -0.52623135       0.20026325
H        2.71909109      -1.78624046       0.34251388
H        2.65637659      -0.64796834      -0.84486083
H       -1.60637163       2.66069769      -0.56423720
H       -0.01986640       2.71668984      -0.87800383
H       -0.21471191       0.23873435       3.12515675
H       -1.56303705      -0.35844832       2.71179669
O        0.26636932       0.05942380       0.18109798
O        2.38235227      -0.90598373       0.04291414
O       -0.79433455       2.10658887      -0.75513439
O       -0.66595457      -0.24467754       2.40370433
13
Lattice="529.1772105638412 0.0 0.0 0.0 529.1772105638412 0.0 0.0 0.0 529.1772105638412" Properties=species:S:1:pos:R:3 ipi_comment="Step:         640  Bead:       0 positions{ase}  cell{ase}" pbc="T T T"
H       -0.49524053       1.38098656      -0.22391094
H       -0.30925004       0.05106309       1.32350644
H        1.38231514      -0.52387239       0.39938993
H        2.69468904      -1.85110651       0.21986000
H        2.71237396      -0.61203979      -0.77028794
H       -1.67174817       2.60346235      -0.57255392
H       -0.10789938       2.75907367      -1.09611288
H       -0.26255379       0.12212924       3.23237000
H       -1.53857405      -0.41306035       2.42868447
O        0.26284089       0.05196832       0.23801151
O        2.37157310      -0.94494255       0.04106880
O       -0.81504977       2.11626822      -0.79386045
O       -0.60791268      -0.21923992       2.40478164
13