13
Lattice="529.1772105638412 0.0 0.0 0.0 529.1772105638412 0.0 0.0 0.0 529.1772105638412" Properties=species:S:1:pos:R:3:forces_component_raw:R:3 ipi_comment="Step:           0  Bead:       0 forces_component_raw{ase}  cell{ase}" pbc="T T T"
H        0.00000000       0.00000000       0.00000000      -0.17302723       1.71929892       0.16701490
H        0.00000000       0.00000000       0.00000000      -0.34472648      -0.36214005       0.43160639
H        0.00000000       0.00000000       0.00000000       2.01804278      -0.17261759      -0.11817377
H        0.00000000       0.00000000       0.00000000       0.53359862      -0.47559252       0.20655580
H        0.00000000       0.00000000       0.00000000       0.31579921      -0.01646268      -0.00656105
H        0.00000000       0.00000000       0.00000000      -0.02118240       0.22467987      -0.71804860
H        0.00000000       0.00000000       0.00000000       0.10372493      -0.78642053      -0.32166561
H        0.00000000       0.00000000       0.00000000       0.09162680       0.14654229      -0.33676366
H        0.00000000       0.00000000       0.00000000      -0.43143588      -0.09856922      -0.34152960
O        0.00000000       0.00000000       0.00000000      -1.69677934      -1.40604480       0.33386453
O        0.00000000       0.00000000       0.00000000      -0.94903076       0.25647811      -0.01305533
O        0.00000000       0.00000000       0.00000000      -0.38137414       0.32939399       0.87227796
O        0.00000000       0.00000000       0.00000000       0.93476387       0.64145421      -0.15552197
13
Lattice="529.1772105638412 0.0 0.0 0.0 529.1772105638412 0.0 0.0 0.0 529.1772105638412" Properties=species:S:1:pos:R:3:forces_component_raw:R:3 ipi_comment="Step:          20  Bead:       0 forces_component_raw{ase}  cell{ase}" pbc="T T T"
H        0.00000000       0.00000000       0.00000000       0.04071728      -0.30117991      -0.34498740
H        0.00000000       0.00000000       0.00000000      -0.28475663      -0.01983879       0.59926869
H        0.00000000       0.00000000       0.00000000      -0.25966343      -0.22854966       0.17254082
H        0.00000000       0.00000000       0.00000000      -0.02092621      -0.90792600      -0.03745837
H        0.00000000       0.00000000       0.00000000      -0.82650675      -0.66488740      -0.46923314
H        0.00000000       0.00000000       0.00000000      -0.18103700       0.46578830      -0.67872248
H        0.00000000       0.00000000       0.00000000       0.07977710      -0.13559343      -0.72846325
H        0.00000000       0.00000000       0.00000000       0.50256422      -0.21192132       1.04546859
H        0.00000000       0.00000000       0.00000000      -0.09612481      -0.02509536      -0.17577440
O        0.00000000       0.00000000       0.00000000       0.36158675      -0.47390980       0.42511470
O        0.00000000       0.00000000       0.00000000       0.70232281       1.49618374       0.36391775
O        0.00000000       0.00000000       0.00000000      -0.20656633       0.19837480       1.66041532
O        0.00000000       0.00000000       0.00000000       0.18861298       0.80855484      -1.83208683
13
Lattice="529.1772105638412 0.0 0.0 0.0 529.1772105638412 0.0 0.0 0.0 529.1772105638412" Properties=species:S:1:pos:R:3:forces_component_raw:R:3 ipi_comment="Step:          40  Bead:       0 forces_component_raw{ase}  cell{ase}" pbc="T T T"
H        0.00000000       0.00000000       0.00000000      -0.20123914       0.95443110       0.07936154
H        0.00000000       0.00000000       0.00000000      -0.25725046      -0.38336987      -0.16606251
H        0.00000000       0.00000000       0.00000000       1.04377032       0.05828887       0.05447853
H        0.00000000       0.00000000       0.00000000       0.42610079       0.38307603       0.09939652
H        0.00000000       0.00000000       0.00000000      -0.43520101      -1.72068251      -0.40794571
H        0.00000000       0.00000000       0.00000000      -0.01153497      -0.04960113       0.16932814
H        0.00000000       0.00000000       0.00000000       0.17946852      -0.33814359      -0.41784788
H        0.00000000       0.00000000       0.00000000       0.51803005      -0.37663619       0.96722837
H        0.00000000       0.00000000       0.00000000      -0.06750627       0.02428010      -0.15907220
O        0.00000000       0.00000000       0.00000000      -1.33587107      -1.36825411       0.76278949
O        0.00000000       0.00000000       0.00000000       0.47527355       1.00237069       0.26284321
O        0.00000000       0.00000000       0.00000000      -0.39428813       0.85160429       0.12830173
O        0.00000000       0.00000000       0.00000000       0.06024784       0.96263632      -1.37279922
13
Lattice="529.1772105638412 0.0 0.0 0.0 529.1772105638412 0.0 0.0 0.0 529.1772105638412" Properties=species:S:1:pos:R:3:forces_component_raw:R:3 ipi_comment="Step:          60  Bead:       0 forces_component_raw{ase}  cell{ase}" pbc="T T T"
H        0.00000000       0.00000000       0.00000000      -0.04119958       0.13188248       0.22279907
H        0.00000000       0.00000000       0.00000000       0.02816750      -0.66838729       0.50690896
H        0.00000000       0.00000000       0.00000000       0.02284124      -0.03968619      -0.33499153
H        0.00000000       0.00000000       0.00000000      -0.86516742       0.26964636       0.12535671
H        0.00000000       0.00000000       0.00000000      -1.49559407      -0.46282256       0.06253723
H        0.00000000       0.00000000       0.00000000       0.29868014      -0.48782869       0.37446603
H        0.00000000       0.00000000       0.00000000      -0.17730895      -0.11071483       0.51524386
H        0.00000000       0.00000000       0.00000000       0.37089725      -0.18380844       0.35016554
H        0.00000000       0.00000000       0.00000000      -0.15539410      -0.05318316       0.03360139
O        0.00000000       0.00000000       0.00000000       0.10461647       1.75835562      -0.92368514
O        0.00000000       0.00000000       0.00000000       3.14594080      -0.08531857      -0.10114791
O        0.00000000       0.00000000       0.00000000      -0.24440463       0.07445042      -1.10807516
O        0.00000000       0.00000000       0.00000000      -0.99207465      -0.14258513       0.27682096
13
Lattice="529.1772105638412 0.0 0.0 0.0 529.1772105638412 0.0 0.0 0.0 529.1772105638412" Properties=species:S:1:pos:R:3:forces_component_raw:R:3 ipi_comment="Step:          80  Bead:       0 forces_component_raw{ase}  cell{ase}" pbc="T T T"
H        0.00000000       0.00000000       0.00000000       0.39345230       0.34992940      -0.33104213
H        0.00000000       0.00000000       0.00000000      -0.56961201       0.59217401      -0.24218962
H        0.00000000       0.00000000       0.00000000       0.47022507       0.15725894      -0.26216828
H        0.00000000       0.00000000       0.00000000       0.00837937       1.58043797       0.39759029
H        0.00000000       0.00000000       0.00000000      -0.06872967      -0.73012498      -0.20379182
H        0.00000000       0.00000000       0.00000000       0.07623053      -0.24487333       0.44356365
H        0.00000000       0.00000000       0.00000000      -0.70271398       0.67782880       0.69365042
H        0.00000000       0.00000000       0.00000000      -0.92884038       0.23279054      -0.18755175
H        0.00000000       0.00000000       0.00000000       0.20832356      -0.09352960       0.20568124
O        0.00000000       0.00000000       0.00000000       0.08742117       1.29716096      -0.98222371
O        0.00000000       0.00000000       0.00000000       0.73092345      -1.23133640      -0.16996314
O        0.00000000       0.00000000       0.00000000       0.17397589      -1.15688498      -0.89827824
O        0.00000000       0.00000000       0.00000000       0.12096470      -1.43083132       1.53672308
13
Lattice="529.1772105638412 0.0 0.0 0.0 529.1772105638412 0.0 0.0 0.0 529.1772105638412" Properties=species:S:1:pos:R:3:forces_component_raw:R:3 ipi_comment="Step:         100  Bead:       0 forces_component_raw{ase}  cell{ase}" pbc="T T T"
H        0.00000000       0.00000000       0.00000000      -0.08108970       0.69481416       0.28304453
H        0.00000000       0.00000000       0.00000000       0.35823072      -0.62063211       0.70710520
H        0.00000000       0.00000000       0.00000000       0.57512182      -0.47116472       0.49861790
H        0.00000000       0.00000000       0.00000000      -1.06398812       0.70318832       1.21314583
H        0.00000000       0.00000000       0.00000000      -0.21775777       0.34365175       0.42620178
H        0.00000000       0.00000000       0.00000000       0.30682750      -0.03354395       0.49287996
H        0.00000000       0.00000000       0.00000000      -0.89022263       0.55564941       1.01793749
H        0.00000000       0.00000000       0.00000000      -0.72891935       1.35408642      -0.73378082
H        0.00000000       0.00000000       0.00000000      -0.03438256       0.41847857      -0.01122205
O        0.00000000       0.00000000       0.00000000      -0.35396179      -0.42214239      -0.67431026
O        0.00000000       0.00000000       0.00000000       1.38370713      -1.03536064      -1.88897983
O        0.00000000       0.00000000       0.00000000       0.26860812       0.21057181      -1.86705745
O        0.00000000       0.00000000       0.00000000       0.47782662      -1.69759661       0.53641772
13
Lattice="529.1772105638412 0.0 0.0 0.0 529.1772105638412 0.0 0.0 0.0 529.1772105638412" Properties=species:S:1:pos:R:3:forces_component_raw:R:3 ipi_comment="Step:         120  Bead:       0 forces_component_raw{ase}  cell{ase}" pbc="T T T"
H        0.00000000       0.00000000       0.00000000       0.14743317      -0.52044818      -0.43911525
H        0.00000000       0.00000000       0.00000000      -0.83309762      -0.47703285      -0.25608995
H        0.00000000       0.00000000       0.00000000       0.49684744       0.45976416      -0.75943128
H        0.00000000       0.00000000       0.00000000      -0.73030331       1.35732687       0.56755884
H        0.00000000       0.00000000       0.00000000       0.58199947       0.43476354      -0.44245465
H        0.00000000       0.00000000       0.00000000      -0.05191958      -0.03301578       0.30531326
H        0.00000000       0.00000000       0.00000000      -0.67744748       0.52355366       0.56859919
H        0.00000000       0.00000000       0.00000000      -1.53688363       0.63974552      -0.50264546
H        0.00000000       0.00000000       0.00000000       0.71659937       0.08142497       0.16665257
O        0.00000000       0.00000000       0.00000000       0.11259837      -1.66219199       1.90783531
O        0.00000000       0.00000000       0.00000000      -0.35604094      -1.96051332       0.05048097
O        0.00000000       0.00000000       0.00000000       0.35109729       1.26265403      -0.77933885
O        0.00000000       0.00000000       0.00000000       1.77911743      -0.10603063      -0.38736469
13
Lattice="529.1772105638412 0.0 0.0 0.0 529.1772105638412 0.0 0.0 0.0 529.1772105638412" Properties=species:S:1:pos:R:3:forces_component_raw:R:3 ipi_comment="Step:         140  Bead:       0 forces_component_raw{ase}  cell{ase}" pbc="T T T"
H        0.00000000       0.00000000       0.00000000      -0.31443460       0.10870513      -0.09288518
H        0.00000000       0.00000000       0.00000000       0.68475100       0.10425593       0.47792541
H        0.00000000       0.00000000       0.00000000       0.03524816      -0.00817840       0.51668333
H        0.00000000       0.00000000       0.00000000      -0.69945526       0.08691522       0.36788589
H        0.00000000       0.00000000       0.00000000       0.57185927       1.73894879      -0.54014115
H        0.00000000       0.00000000       0.00000000       0.14732418      -0.25466568       0.04599134
H        0.00000000       0.00000000       0.00000000      -0.07536073      -0.12864891       0.25266029
H        0.00000000       0.00000000       0.00000000       0.44241266       0.66511188      -0.26380517
H        0.00000000       0.00000000       0.00000000       0.25061019       0.69895032       0.14131036
O        0.00000000       0.00000000       0.00000000      -0.14230313       0.23473308       0.27857279
O        0.00000000       0.00000000       0.00000000      -0.18839987      -1.80108955      -0.12372734
O        0.00000000       0.00000000       0.00000000       0.17476966      -0.28378951      -0.30587220
O        0.00000000       0.00000000       0.00000000      -0.88702154      -1.16124830      -0.75459838
13
Lattice="529.1772105638412 0.0 0.0 0.0 529.1772105638412 0.0 0.0 0.0 529.1772105638412" Properties=species:S:1:pos:R:3:forces_component_raw:R:3 ipi_comment="Step:         160  Bead:       0 forces_component_raw{ase}  cell{ase}" pbc="T T T"
H        0.00000000       0.00000000       0.00000000       0.06364167       0.91269723       0.12142658
H        0.00000000       0.00000000       0.00000000      -1.02343458       0.43005941      -0.30271095
H        0.00000000       0.00000000       0.00000000       0.34415530       0.19481420       0.12899531
H        0.00000000       0.00000000       0.00000000       0.31569109      -0.01459589      -0.16987626
H        0.00000000       0.00000000       0.00000000       1.22714483       1.42053491      -0.72044503
H        0.00000000       0.00000000       0.00000000       0.17567551      -0.19136033       0.04391965
H        0.00000000       0.00000000       0.00000000       0.27832524      -0.08595734      -0.25704481
H        0.00000000       0.00000000       0.00000000      -0.11967604      -0.50757316       0.45392005
H        0.00000000       0.00000000       0.00000000      -0.20588868      -0.21056435      -0.14225358
O        0.00000000       0.00000000       0.00000000      -0.12975101      -0.32100817       0.46479081
O        0.00000000       0.00000000       0.00000000      -1.77847830      -1.48490198       0.74546910
O        0.00000000       0.00000000       0.00000000      -0.35775881      -0.78872427       0.17280632
O        0.00000000       0.00000000       0.00000000       1.21035378       0.64657976      -0.53899720
13
Lattice="529.1772105638412 0.0 0.0 0.0 529.1772105638412 0.0 0.0 0.0 529.1772105638412" Properties=species:S:1:pos:R:3:forces_component_raw:R:3 ipi_comment="Step:         180  Bead:       0 forces_component_raw{ase}  cell{ase}" pbc="T T T"
H        0.00000000       0.00000000       0.00000000      -0.05242049       0.17157271      -0.20966002
H        0.00000000       0.00000000       0.00000000      -0.06550728      -1.12455571       1.14137140
H        0.00000000       0.00000000       0.00000000       0.20190448      -0.21044526      -0.17322476
H        0.00000000       0.00000000       0.00000000       0.74560024      -2.06869500      -0.10681611
H        0.00000000       0.00000000       0.00000000       0.46924816       1.29132932      -0.25613168
H        0.00000000       0.00000000       0.00000000      -0.26583722       0.21169024      -0.73459628
H        0.00000000       0.00000000       0.00000000       0.54850264      -0.16846368      -0.86464961
H        0.00000000       0.00000000       0.00000000       1.12279257      -0.72596475       0.86784188
H        0.00000000       0.00000000       0.00000000      -0.64595392       0.21639983      -0.33712470
O        0.00000000       0.00000000       0.00000000       0.33079275       2.61331926      -1.39856854
O        0.00000000       0.00000000       0.00000000      -1.50086939       0.65358266       0.51567698
O        0.00000000       0.00000000       0.00000000       0.07405033      -1.25586291       1.68241594
O        0.00000000       0.00000000       0.00000000      -0.96230287       0.39609328      -0.12653449
13
Lattice="529.1772105638412 0.0 0.0 0.0 529.1772105638412 0.0 0.0 0.0 529.1772105638412" Properties=species:S:1:pos:R:3:forces_component_raw:R:3 ipi_comment="Step:         200  Bead:       0 forces_component_raw{ase}  cell{ase}" pbc="T T T"
H        0.00000000       0.00000000       0.00000000      -0.40524786       0.29104726       0.57096862
H        0.00000000       0.00000000       0.00000000      -0.31145230       0.65352736      -0.32965881
H        0.00000000       0.00000000       0.00000000       0.74772841       0.27481830      -0.35166883
H        0.00000000       0.00000000       0.00000000       1.26286451      -1.59837733      -0.02114536
H        0.00000000       0.00000000       0.00000000       0.04343712      -0.23658731      -0.00727532
H        0.00000000       0.00000000       0.00000000       0.18233513      -0.26355600      -0.11243326
H        0.00000000       0.00000000       0.00000000       0.28682954      -0.32910823      -0.29705698
H        0.00000000       0.00000000       0.00000000       0.27515107      -1.19178511       1.35170618
H        0.00000000       0.00000000       0.00000000      -1.25409561      -0.52935151       0.11591842
O        0.00000000       0.00000000       0.00000000       0.02528539       0.58165429      -0.41070647
O        0.00000000       0.00000000       0.00000000      -1.64372016       1.58323546       0.14217710
O        0.00000000       0.00000000       0.00000000      -0.01423044      -0.36700187       0.20163371
O        0.00000000       0.00000000       0.00000000       0.80511519       1.13148468      -0.85245901
13
Lattice="529.1772105638412 0.0 0.0 0.0 529.1772105638412 0.0 0.0 0.0 529.1772105638412" Properties=species:S:1:pos:R:3:forces_component_raw:R:3 ipi_comment="Step:         220  Bead:       0 forces_component_raw{ase}  cell{ase}" pbc="T T T"
H        0.00000000       0.00000000       0.00000000       0.40606132       0.65822905      -0.62339475
H        0.00000000       0.00000000       0.00000000       0.25159249      -0.35636440       0.01188478
H        0.00000000       0.00000000       0.00000000       0.10691013      -0.59442904       0.48691960
H        0.00000000       0.00000000       0.00000000      -0.21728533      -0.30669891       0.04519213
H        0.00000000       0.00000000       0.00000000      -0.86893330      -0.83973539       0.15233242
H        0.00000000       0.00000000       0.00000000       0.21677453      -0.55008691       0.34985519
H        0.00000000       0.00000000       0.00000000      -0.05295122       0.01234208       0.11167002
H        0.00000000       0.00000000       0.00000000       1.24333151      -0.59391469       0.70245161
H        0.00000000       0.00000000       0.00000000      -1.60372457       0.24591389      -0.72193454
O        0.00000000       0.00000000       0.00000000      -0.41709435      -0.09721605       0.45280334
O        0.00000000       0.00000000       0.00000000       0.58328290       1.50260600      -0.36113361
O        0.00000000       0.00000000       0.00000000      -0.23878251       0.37131718      -0.27984522
O        0.00000000       0.00000000       0.00000000       0.59081841       0.54803720      -0.32680097
13
Lattice="529.1772105638412 0.0 0.0 0.0 529.1772105638412 0.0 0.0 0.0 529.1772105638412" Properties=species:S:1:pos:R:3:forces_component_raw:R:3 ipi_comment="Step:         240  Bead:       0 forces_component_raw{ase}  cell{ase}" pbc="T T T"
H        0.00000000       0.00000000       0.00000000      -0.31504232      -0.52509771       0.41642438
H        0.00000000       0.00000000       0.00000000      -0.74837777       0.52254236       0.08425486
H        0.00000000       0.00000000       0.00000000       0.19370227       0.27725099      -0.81677684
H        0.00000000       0.00000000       0.00000000      -0.46079926       1.09735644      -0.42281279
H        0.00000000       0.00000000       0.00000000      -0.64084988      -0.96116438       0.41903956
H        0.00000000       0.00000000       0.00000000      -0.07344985       0.08276758       0.66819137
H        0.00000000       0.00000000       0.00000000      -0.19117830       0.61125036       0.59670008
H        0.00000000       0.00000000       0.00000000      -0.15482502      -0.30317394       0.09576761
H        0.00000000       0.00000000       0.00000000       0.04803685      -0.25791945       0.14511850
O        0.00000000       0.00000000       0.00000000       1.18140269      -1.94741236       1.24048786
O        0.00000000       0.00000000       0.00000000       0.65216197      -0.28942884       0.32320467
O        0.00000000       0.00000000       0.00000000      -0.32670778       0.84384645      -1.67833233
O        0.00000000       0.00000000       0.00000000       0.83592641       0.84918249      -1.07126692
13
Lattice="529.1772105638412 0.0 0.0 0.0 529.1772105638412 0.0 0.0 0.0 529.1772105638412" Properties=species:S:1:pos:R:3:forces_component_raw:R:3 ipi_comment="Step:         260  Bead:       0 forces_component_raw{ase}  cell{ase}" pbc="T T T"
H        0.00000000       0.00000000       0.00000000      -0.32710812       0.60723576      -0.80084243
H        0.00000000       0.00000000       0.00000000       0.47549608      -0.73969497       0.19781148
H        0.00000000       0.00000000       0.00000000       0.61171517      -0.19555553       0.15147409
H        0.00000000       0.00000000       0.00000000      -1.52929370       1.30379683      -0.79789529
H        0.00000000       0.00000000       0.00000000      -0.70608611      -0.74307245       0.33356663
H        0.00000000       0.00000000       0.00000000       0.05670235      -0.38290354       0.53322978
H        0.00000000       0.00000000       0.00000000      -0.08718181       0.31373459       0.45064679
H        0.00000000       0.00000000       0.00000000      -0.34006557       0.69301476      -0.61563049
H        0.00000000       0.00000000       0.00000000       1.19193137       0.20801040       0.00736647
O        0.00000000       0.00000000       0.00000000      -0.88844513      -1.13251756       1.16318828
O        0.00000000       0.00000000       0.00000000       2.15535649      -0.51812985       0.40092757
O        0.00000000       0.00000000       0.00000000      -0.17693722       0.77492144      -0.78353712
O        0.00000000       0.00000000       0.00000000      -0.43608380      -0.18883988      -0.24030577
13
Lattice="529.1772105638412 0.0 0.0 0.0 529.1772105638412 0.0 0.0 0.0 529.1772105638412" Properties=species:S:1:pos:R:3:forces_component_raw:R:3 ipi_comment="Step:         280  Bead:       0 forces_component_raw{ase}  cell{ase}" pbc="T T T"
H        0.00000000       0.00000000       0.00000000      -0.46339513       0.06094269       0.38641593
H        0.00000000       0.00000000       0.00000000      -0.73393314       0.03425671       0.32133478
H        0.00000000       0.00000000       0.00000000       0.37746252       0.01319598      -0.39318468
H        0.00000000       0.00000000       0.00000000      -1.16643375       1.97181849      -1.63038867
H        0.00000000       0.00000000       0.00000000      -0.00853723      -0.80444832       0.56921586
H        0.00000000       0.00000000       0.00000000      -0.11677913       0.20557521      -0.19808788
H        0.00000000       0.00000000       0.00000000       0.13365530      -0.25010214      -0.07767651
H        0.00000000       0.00000000       0.00000000      -0.93161345       1.08948212      -0.25205658
H        0.00000000       0.00000000       0.00000000       0.72998790       0.15746461      -0.16020760
O        0.00000000       0.00000000       0.00000000       0.38988710       0.48804744      -0.26611817
O        0.00000000       0.00000000       0.00000000       0.72094849      -1.23292633       1.35901058
O        0.00000000       0.00000000       0.00000000       0.38619319      -0.23705050      -0.05104522
O        0.00000000       0.00000000       0.00000000       0.68255735      -1.49625596       0.39278816
13
Lattice="529.1772105638412 0.0 0.0 0.0 529.1772105638412 0.0 0.0 0.0 529.1772105638412" Properties=species:S:1:pos:R:3:forces_component_raw:R:3 ipi_comment="Step:         300  Bead:       0 forces_component_raw{ase}  cell{ase}" pbc="T T T"
H        0.00000000       0.00000000       0.00000000       0.00266016       0.25959257      -0.46511457
H        0.00000000       0.00000000       0.00000000       0.46620570      -0.64949287       0.23828981
H        0.00000000       0.00000000       0.00000000       0.47186535       0.13469681       0.02580858
H        0.00000000       0.00000000       0.00000000      -1.69392349       0.84282903      -1.05324619
H        0.00000000       0.00000000       0.00000000      -0.74171013      -0.28442347       0.03913549
H        0.00000000       0.00000000       0.00000000      -0.05798597       0.60158010      -1.63497276
H        0.00000000       0.00000000       0.00000000      -0.28145820      -0.31728855      -0.27631155
H        0.00000000       0.00000000       0.00000000      -0.45636558       1.83273738      -0.13129383
H        0.00000000       0.00000000       0.00000000       1.12260012       0.04626841       0.12129304
O        0.00000000       0.00000000       0.00000000      -0.65175519       1.29715775      -0.43977723
O        0.00000000       0.00000000       0.00000000       1.80294223      -0.65461121       1.11661595
O        0.00000000       0.00000000       0.00000000       1.07390893      -1.02328482       2.19304640
O        0.00000000       0.00000000       0.00000000      -1.05698394      -2.08576114       0.26652686
13
Lattice="529.1772105638412 0.0 0.0 0.0 529.1772105638412 0.0 0.0 0.0 529.1772105638412" Properties=species:S:1:pos:R:3:forces_component_raw:R:3 ipi_comment="Step:         320  Bead:       0 forces_component_raw{ase}  cell{ase}" pbc="T T T"
H        0.00000000       0.00000000       0.00000000      -0.43332094       0.36307134       0.34862584
H        0.00000000       0.00000000       0.00000000      -0.83653181       0.07391463       0.11988447
H        0.00000000       0.00000000       0.00000000       0.54896006      -0.07047259      -0.32403638
H        0.00000000       0.00000000       0.00000000      -0.35522644       0.70273477      -0.65754744
H        0.00000000       0.00000000       0.00000000       0.71402867       0.66800742      -0.19182034
H        0.00000000       0.00000000       0.00000000      -0.29977059       1.11562536      -2.32088596
H        0.00000000       0.00000000       0.00000000      -0.28167696      -0.04479967      -0.08810767
H        0.00000000       0.00000000       0.00000000      -0.24137012       1.54906523       0.47561416
H        0.00000000       0.00000000       0.00000000       0.95729194      -0.44371977       0.24828940
O        0.00000000       0.00000000       0.00000000       0.37481054       0.40708161      -0.41109647
O        0.00000000       0.00000000       0.00000000      -0.94438753      -1.23157810       1.10620062
O        0.00000000       0.00000000       0.00000000       1.27557464      -1.70971096       2.35154765
O        0.00000000       0.00000000       0.00000000      -0.47838145      -1.37921927      -0.65666789
13
Lattice="529.1772105638412 0.0 0.0 0.0 529.1772105638412 0.0 0.0 0.0 529.1772105638412" Properties=species:S:1:pos:R:3:forces_component_raw:R:3 ipi_comment="Step:         340  Bead:       0 forces_component_raw{ase}  cell{ase}" pbc="T T T"
H        0.00000000       0.00000000       0.00000000       0.05023642       0.51769426      -0.15223953
H        0.00000000       0.00000000       0.00000000      -0.11794808      -0.56062559       0.02019035
H        0.00000000       0.00000000       0.00000000       0.31270192      -0.08546422       0.27022485
H        0.00000000       0.00000000       0.00000000       0.25492631      -0.66449104       0.64453804
H        0.00000000       0.00000000       0.00000000       0.29032248       0.88842490      -0.48872227
H        0.00000000       0.00000000       0.00000000      -0.26425946       0.43345499      -1.49307974
H        0.00000000       0.00000000       0.00000000       0.16136963       0.67393849       0.61471838
H        0.00000000       0.00000000       0.00000000       0.35338917       0.13952846       0.17237274
H        0.00000000       0.00000000       0.00000000       0.81896560      -0.64346582       0.57383161
O        0.00000000       0.00000000       0.00000000       0.41222827      -0.22126433      -0.15352407
O        0.00000000       0.00000000       0.00000000      -1.50863877      -0.00505713      -0.06992889
O        0.00000000       0.00000000       0.00000000       0.35410578      -1.53199836       1.03871841
O        0.00000000       0.00000000       0.00000000      -1.11739925       1.05932540      -0.97709989
13
Lattice="529.1772105638412 0.0 0.0 0.0 529.1772105638412 0.0 0.0 0.0 529.1772105638412" Properties=species:S:1:pos:R:3:forces_component_raw:R:3 ipi_comment="Step:         360  Bead:       0 forces_component_raw{ase}  cell{ase}" pbc="T T T"
H        0.00000000       0.00000000       0.00000000      -0.70026512      -0.18011199       0.12854271
H        0.00000000       0.00000000       0.00000000      -0.40617299       0.09823258       0.33287027
H        0.00000000       0.00000000       0.00000000       0.50982598       0.28929353      -0.43270341
H        0.00000000       0.00000000       0.00000000       1.37360372      -0.65331914       0.92924586
H        0.00000000       0.00000000       0.00000000       0.32736665       0.20057796       0.00180797
H        0.00000000       0.00000000       0.00000000      -0.03890687       0.03393471      -0.40569456
H        0.00000000       0.00000000       0.00000000       0.14475786       1.39764065       1.01147318