13
Lattice="529.1772105638412 0.0 0.0 0.0 529.1772105638412 0.0 0.0 0.0 529.1772105638412" Properties=species:S:1:pos:R:3:forces_component_raw:R:3 ipi_comment="Step:           0  Bead:       0 forces_component_raw{ase}  cell{ase}" pbc="T T T"
H        0.00000000       0.00000000       0.00000000      -0.45802528       2.28203801       0.34064519
H        0.00000000       0.00000000       0.00000000      -0.35287334      -0.30454521       0.93150715
H        0.00000000       0.00000000       0.00000000       2.72721142      -0.24538065       0.26846432
H        0.00000000       0.00000000       0.00000000       0.81285762      -0.28436008       0.46383096
H        0.00000000       0.00000000       0.00000000       0.88987747      -0.03785125       0.35537518
H        0.00000000       0.00000000       0.00000000      -0.08371710       0.76527200      -0.81832142
H        0.00000000       0.00000000       0.00000000       0.09014717      -0.45523580      -0.41725101
H        0.00000000       0.00000000       0.00000000      -0.07118229      -0.00854406      -0.10519228
H        0.00000000       0.00000000       0.00000000      -0.46627527      -0.21436323      -0.03937154
O        0.00000000       0.00000000       0.00000000      -2.02648026      -1.84686314      -1.21538574
O        0.00000000       0.00000000       0.00000000      -1.53767504       0.21452856      -0.63496857
O        0.00000000       0.00000000       0.00000000      -0.21936171      -0.31039289       1.03889743
O        0.00000000       0.00000000       0.00000000       0.69549660       0.44569774      -0.16822966
13
Lattice="529.1772105638412 0.0 0.0 0.0 529.1772105638412 0.0 0.0 0.0 529.1772105638412" Properties=species:S:1:pos:R:3:forces_component_raw:R:3 ipi_comment="Step:          20  Bead:       0 forces_component_raw{ase}  cell{ase}" pbc="T T T"
H        0.00000000       0.00000000       0.00000000      -0.69808811      -4.11943989       0.15161863
H        0.00000000       0.00000000       0.00000000       0.34704644       0.41942538       0.18717914
H        0.00000000       0.00000000       0.00000000      -5.76225545      -0.75410244       1.11088228
H        0.00000000       0.00000000       0.00000000      -0.63351036      -1.05475103      -0.11932731
H        0.00000000       0.00000000       0.00000000      -1.21927634      -0.29550836      -0.37896110
H        0.00000000       0.00000000       0.00000000      -0.20915294       0.04564084      -0.45572190
H        0.00000000       0.00000000       0.00000000       0.14030722      -0.45129921      -0.68970334
H        0.00000000       0.00000000       0.00000000       0.43261662      -0.21866343       0.98894431
H        0.00000000       0.00000000       0.00000000      -0.07487410      -0.02766169      -0.07276361
O        0.00000000       0.00000000       0.00000000      -0.47056662      -1.14841444       0.74003091
O        0.00000000       0.00000000       0.00000000       6.97969204       1.70069204      -0.34446965
O        0.00000000       0.00000000       0.00000000       0.54334950       4.73721325       1.09616946
O        0.00000000       0.00000000       0.00000000       0.62471209       1.16686898      -2.21387781
13
Lattice="529.1772105638412 0.0 0.0 0.0 529.1772105638412 0.0 0.0 0.0 529.1772105638412" Properties=species:S:1:pos:R:3:forces_component_raw:R:3 ipi_comment="Step:          40  Bead:       0 forces_component_raw{ase}  cell{ase}" pbc="T T T"
H        0.00000000       0.00000000       0.00000000      -0.40314022       0.84139310       0.36082342
H        0.00000000       0.00000000       0.00000000      -0.12831407      -0.33389586       0.33656566
H        0.00000000       0.00000000       0.00000000       0.50349927      -0.41119870      -0.18504391
H        0.00000000       0.00000000       0.00000000       1.23653715      -0.71737868      -0.03436320
H        0.00000000       0.00000000       0.00000000      -0.08519462      -1.20572832      -0.38686939
H        0.00000000       0.00000000       0.00000000       0.00713312      -0.09218927      -0.03170571
H        0.00000000       0.00000000       0.00000000      -0.13782672       0.00846747       0.30311777
H        0.00000000       0.00000000       0.00000000       0.68100206      -0.44213646       1.44114909
H        0.00000000       0.00000000       0.00000000       0.09134968       0.11757023       0.03581335
O        0.00000000       0.00000000       0.00000000       0.45660225       0.24243501       0.10991083
O        0.00000000       0.00000000       0.00000000      -1.79210526       1.88368042       0.54050022
O        0.00000000       0.00000000       0.00000000       0.06584906      -0.72706566      -0.43726337
O        0.00000000       0.00000000       0.00000000      -0.49539172       0.83604673      -2.05263473
13
Lattice="529.1772105638412 0.0 0.0 0.0 529.1772105638412 0.0 0.0 0.0 529.1772105638412" Properties=species:S:1:pos:R:3:forces_component_raw:R:3 ipi_comment="Step:          60  Bead:       0 forces_component_raw{ase}  cell{ase}" pbc="T T T"
H        0.00000000       0.00000000       0.00000000       0.11954861      -0.29215784       0.46458428
H        0.00000000       0.00000000       0.00000000      -0.42226358      -0.21208539       0.36500608
H        0.00000000       0.00000000       0.00000000       1.65315824      -0.22337765       0.29326819
H        0.00000000       0.00000000       0.00000000      -0.10327630      -0.47999215      -0.31468892
H        0.00000000       0.00000000       0.00000000      -0.35623299       0.46507442       0.26679714
H        0.00000000       0.00000000       0.00000000      -0.24496965       0.51677663       0.70831286
H        0.00000000       0.00000000       0.00000000      -0.33033559       0.61799953      -0.16884222
H        0.00000000       0.00000000       0.00000000      -0.15290296      -0.90806960       0.70677932
H        0.00000000       0.00000000       0.00000000       0.36891088      -0.33309809       0.79435266
O        0.00000000       0.00000000       0.00000000      -1.05704228       0.55926643      -0.48938599
O        0.00000000       0.00000000       0.00000000       0.08574544      -0.00069964      -0.15640393
O        0.00000000       0.00000000       0.00000000       0.44573833      -1.01968452      -0.85095487
O        0.00000000       0.00000000       0.00000000      -0.00607816       1.31004788      -1.61882461
13
Lattice="529.1772105638412 0.0 0.0 0.0 529.1772105638412 0.0 0.0 0.0 529.1772105638412" Properties=species:S:1:pos:R:3:forces_component_raw:R:3 ipi_comment="Step:          80  Bead:       0 forces_component_raw{ase}  cell{ase}" pbc="T T T"
H        0.00000000       0.00000000       0.00000000      -0.05805276      -1.31838702      -0.28171007
H        0.00000000       0.00000000       0.00000000       0.28789546       0.52909280      -0.60484326
H        0.00000000       0.00000000       0.00000000      -2.02806949       0.21506480       0.04960970
H        0.00000000       0.00000000       0.00000000       0.18555107       0.42605580       0.32013872
H        0.00000000       0.00000000       0.00000000       0.53999378       0.06579793      -0.03134478
H        0.00000000       0.00000000       0.00000000       0.37795646      -0.87792879       0.27448712
H        0.00000000       0.00000000       0.00000000       0.00731648      -0.18300437       0.55216145
H        0.00000000       0.00000000       0.00000000       0.53641275       1.07296895      -0.12174721
H        0.00000000       0.00000000       0.00000000      -0.28331846       0.82142076      -0.73454006
O        0.00000000       0.00000000       0.00000000       0.30966299       0.51690712      -0.03680911
O        0.00000000       0.00000000       0.00000000       1.09107104      -0.64363341      -0.33911651
O        0.00000000       0.00000000       0.00000000      -0.24181378       1.62950290      -0.59804553
O        0.00000000       0.00000000       0.00000000      -0.72460556      -2.25385749       1.55175955
13
Lattice="529.1772105638412 0.0 0.0 0.0 529.1772105638412 0.0 0.0 0.0 529.1772105638412" Properties=species:S:1:pos:R:3:forces_component_raw:R:3 ipi_comment="Step:         100  Bead:       0 forces_component_raw{ase}  cell{ase}" pbc="T T T"
H        0.00000000       0.00000000       0.00000000       0.22333448       0.24309980       0.36573888
H        0.00000000       0.00000000       0.00000000       0.21238546      -0.41372169       0.57194711
H        0.00000000       0.00000000       0.00000000      -0.54821011       0.33553825      -0.64801358
H        0.00000000       0.00000000       0.00000000      -1.01293554      -0.14271981       0.39236663
H        0.00000000       0.00000000       0.00000000       0.02703989       0.47052565       0.72110578
H        0.00000000       0.00000000       0.00000000       0.18322908       0.15905460       0.82559997
H        0.00000000       0.00000000       0.00000000      -0.14491313       0.11181934       0.00833390
H        0.00000000       0.00000000       0.00000000      -1.03699860      -0.35967774      -0.68383562
H        0.00000000       0.00000000       0.00000000      -0.03140843      -0.96847606       0.61490610
O        0.00000000       0.00000000       0.00000000      -0.82257250       0.91936928       0.51910369
O        0.00000000       0.00000000       0.00000000       1.66357906      -0.37433885      -0.74639047
O        0.00000000       0.00000000       0.00000000       0.03700469      -1.50437978      -1.15946030
O        0.00000000       0.00000000       0.00000000       1.25046565       1.52390700      -0.78140208
13
Lattice="529.1772105638412 0.0 0.0 0.0 529.1772105638412 0.0 0.0 0.0 529.1772105638412" Properties=species:S:1:pos:R:3:forces_component_raw:R:3 ipi_comment="Step:         120  Bead:       0 forces_component_raw{ase}  cell{ase}" pbc="T T T"
H        0.00000000       0.00000000       0.00000000      -0.30400163       0.54397575      -0.52715198
H        0.00000000       0.00000000       0.00000000      -0.87912582      -1.02112596       0.07503652
H        0.00000000       0.00000000       0.00000000      -0.04735472       0.40217114       1.15281734
H        0.00000000       0.00000000       0.00000000       0.72170685       0.67644710       1.53229948
H        0.00000000       0.00000000       0.00000000       0.71915801       0.06710687      -0.62508065
H        0.00000000       0.00000000       0.00000000       0.07514518      -0.20102576       0.17036494
H        0.00000000       0.00000000       0.00000000       0.03031618      -0.00084313       0.02195750
H        0.00000000       0.00000000       0.00000000      -0.37969892       0.53478664      -0.38949867
H        0.00000000       0.00000000       0.00000000      -0.53245096      -0.57068801      -0.51764818
O        0.00000000       0.00000000       0.00000000      -0.19084630       0.02828854       0.95921233
O        0.00000000       0.00000000       0.00000000      -1.38797394      -1.01575105      -1.70002056
O        0.00000000       0.00000000       0.00000000       0.04110238      -0.42346454       0.03215216
O        0.00000000       0.00000000       0.00000000       2.13402369       0.98012240      -0.18444023
13
Lattice="529.1772105638412 0.0 0.0 0.0 529.1772105638412 0.0 0.0 0.0 529.1772105638412" Properties=species:S:1:pos:R:3:forces_component_raw:R:3 ipi_comment="Step:         140  Bead:       0 forces_component_raw{ase}  cell{ase}" pbc="T T T"
H        0.00000000       0.00000000       0.00000000       0.29849706      -0.60600197       0.45292892
H        0.00000000       0.00000000       0.00000000       0.38952934       0.61201056       0.80322766
H        0.00000000       0.00000000       0.00000000       0.44494126      -0.82500635      -0.75382446
H        0.00000000       0.00000000       0.00000000      -0.65508215      -0.16831270       0.24733683
H        0.00000000       0.00000000       0.00000000       0.23417375      -0.12515657       0.29669558
H        0.00000000       0.00000000       0.00000000      -0.38257138       0.81532239      -0.20524386
H        0.00000000       0.00000000       0.00000000      -0.20175521       0.37447712      -0.54595541
H        0.00000000       0.00000000       0.00000000      -0.07695274      -0.00321816      -0.58125956
H        0.00000000       0.00000000       0.00000000      -0.34129639      -0.34184007       0.57176919
O        0.00000000       0.00000000       0.00000000       0.02337525      -0.60697479       0.72639598
O        0.00000000       0.00000000       0.00000000      -0.53773656       0.83939117       0.01672500
O        0.00000000       0.00000000       0.00000000       0.29116275      -0.22724010       0.48198135
O        0.00000000       0.00000000       0.00000000       0.51371502       0.26254947      -1.51077723
13
Lattice="529.1772105638412 0.0 0.0 0.0 529.1772105638412 0.0 0.0 0.0 529.1772105638412" Properties=species:S:1:pos:R:3:forces_component_raw:R:3 ipi_comment="Step:         160  Bead:       0 forces_component_raw{ase}  cell{ase}" pbc="T T T"
H        0.00000000       0.00000000       0.00000000       0.67254505      -1.46149642       0.49038484
H        0.00000000       0.00000000       0.00000000      -0.67307805       0.33204405      -0.94705398
H        0.00000000       0.00000000       0.00000000      -0.06693098       0.92728781       0.65333953
H        0.00000000       0.00000000       0.00000000       0.38405585       0.03237402      -0.26117208
H        0.00000000       0.00000000       0.00000000      -0.40099538      -0.11614327      -0.20691891
H        0.00000000       0.00000000       0.00000000       0.06745036      -0.40000202      -0.85169248
H        0.00000000       0.00000000       0.00000000       0.20472737      -0.95321557       0.09651030
H        0.00000000       0.00000000       0.00000000      -0.01754061       0.03871470       0.22688386
H        0.00000000       0.00000000       0.00000000      -0.27232867      -0.10822766      -0.50256678
O        0.00000000       0.00000000       0.00000000       0.73020655      -1.02476261       0.24884137
O        0.00000000       0.00000000       0.00000000      -1.10963287      -0.14338945      -0.06687216
O        0.00000000       0.00000000       0.00000000      -0.56282248       2.61559652       0.63777919
O        0.00000000       0.00000000       0.00000000       1.04434388       0.26121990       0.48253729
13
Lattice="529.1772105638412 0.0 0.0 0.0 529.1772105638412 0.0 0.0 0.0 529.1772105638412" Properties=species:S:1:pos:R:3:forces_component_raw:R:3 ipi_comment="Step:         180  Bead:       0 forces_component_raw{ase}  cell{ase}" pbc="T T T"
H        0.00000000       0.00000000       0.00000000      -0.10105021      -0.96312701      -0.23291209
H        0.00000000       0.00000000       0.00000000       0.79874653      -0.61753078       1.31734801
H        0.00000000       0.00000000       0.00000000      -1.83041393       0.30265152      -0.38805788
H        0.00000000       0.00000000       0.00000000       0.44030432       0.47215705      -0.88336088
H        0.00000000       0.00000000       0.00000000      -0.15609450      -0.03276161      -0.69671581
H        0.00000000       0.00000000       0.00000000      -0.10511810       0.61545482       0.26325629
H        0.00000000       0.00000000       0.00000000      -0.04927883       0.45722730      -0.98479229
H        0.00000000       0.00000000       0.00000000       0.62543435       0.26356386       0.99773213
H        0.00000000       0.00000000       0.00000000       0.44548406       0.19696644      -0.18503194
O        0.00000000       0.00000000       0.00000000      -0.29370420       0.68076393      -0.45664889
O        0.00000000       0.00000000       0.00000000       1.58606142      -0.92273239       1.90094745
O        0.00000000       0.00000000       0.00000000       0.06596146      -0.13609520       0.80485442
O        0.00000000       0.00000000       0.00000000      -1.42633235      -0.31653794      -1.45661852
13
Lattice="529.1772105638412 0.0 0.0 0.0 529.1772105638412 0.0 0.0 0.0 529.1772105638412" Properties=species:S:1:pos:R:3:forces_component_raw:R:3 ipi_comment="Step:         200  Bead:       0 forces_component_raw{ase}  cell{ase}" pbc="T T T"
H        0.00000000       0.00000000       0.00000000      -0.20813810      -0.13791707       0.50009222
H        0.00000000       0.00000000       0.00000000      -0.67375282       0.16090478      -0.15239035
H        0.00000000       0.00000000       0.00000000       0.39643819      -0.63187000       0.05310019
H        0.00000000       0.00000000       0.00000000       0.80771642       0.54635325      -1.08379384
H        0.00000000       0.00000000       0.00000000      -0.34820837      -0.06753908      -0.11435774
H        0.00000000       0.00000000       0.00000000      -0.02023845       0.01311977      -0.00590408
H        0.00000000       0.00000000       0.00000000       0.13830443      -0.16606987       0.32397053
H        0.00000000       0.00000000       0.00000000       0.29517982       0.40891352       1.57358017
H        0.00000000       0.00000000       0.00000000       0.89079361       0.24782850      -0.18644698
O        0.00000000       0.00000000       0.00000000       0.10563797       1.01309662      -0.14022415
O        0.00000000       0.00000000       0.00000000      -0.73589025      -0.09363589       1.03985277
O        0.00000000       0.00000000       0.00000000       0.13860510      -0.60644304      -0.70581162
O        0.00000000       0.00000000       0.00000000      -0.78644753      -0.68674149      -1.10166713
13
Lattice="529.1772105638412 0.0 0.0 0.0 529.1772105638412 0.0 0.0 0.0 529.1772105638412" Properties=species:S:1:pos:R:3:forces_component_raw:R:3 ipi_comment="Step:         220  Bead:       0 forces_component_raw{ase}  cell{ase}" pbc="T T T"
H        0.00000000       0.00000000       0.00000000      -0.14667332       0.82431950      -0.91214243
H        0.00000000       0.00000000       0.00000000       0.44874454       0.19946140       0.30309545
H        0.00000000       0.00000000       0.00000000       0.71033307       0.29912527       0.31353444
H        0.00000000       0.00000000       0.00000000       0.65049535       0.51304072      -0.46376212
H        0.00000000       0.00000000       0.00000000       0.13974615       0.06102502       0.00576071
H        0.00000000       0.00000000       0.00000000       0.14143381       0.41063792       0.52518776
H        0.00000000       0.00000000       0.00000000       0.05108222       0.98774989      -0.07905145
H        0.00000000       0.00000000       0.00000000       0.08166249       0.03094362       0.11732690
H        0.00000000       0.00000000       0.00000000       0.95652719      -0.29939833       0.52119455
O        0.00000000       0.00000000       0.00000000      -0.53453647       0.54486864      -0.00222104
O        0.00000000       0.00000000       0.00000000      -1.41757904      -0.67759101       0.35037742
O        0.00000000       0.00000000       0.00000000       0.31149607      -2.93614292       0.16038904
O        0.00000000       0.00000000       0.00000000      -1.39273207       0.04196026      -0.83968921
13
Lattice="529.1772105638412 0.0 0.0 0.0 529.1772105638412 0.0 0.0 0.0 529.1772105638412" Properties=species:S:1:pos:R:3:forces_component_raw:R:3 ipi_comment="Step:         240  Bead:       0 forces_component_raw{ase}  cell{ase}" pbc="T T T"
H        0.00000000       0.00000000       0.00000000      -0.22734848       0.34898311       0.40588643
H        0.00000000       0.00000000       0.00000000      -0.88904212      -0.73454411       0.70442688
H        0.00000000       0.00000000       0.00000000      -1.94133996       0.30422558      -0.02084317
H        0.00000000       0.00000000       0.00000000       0.14870336      -0.06880267       0.21499137
H        0.00000000       0.00000000       0.00000000       0.63848148      -0.27404978       0.57603213
H        0.00000000       0.00000000       0.00000000      -0.17674380      -0.04603231       0.55467648
H        0.00000000       0.00000000       0.00000000       0.34068002       0.42577224       0.41466377
H        0.00000000       0.00000000       0.00000000       0.06706686      -0.30523826      -0.54205501
H        0.00000000       0.00000000       0.00000000       0.34944900      -0.13787364       0.05991694
O        0.00000000       0.00000000       0.00000000      -0.11091583       0.96503755       0.49476714
O        0.00000000       0.00000000       0.00000000       1.39908356      -0.19378064      -0.91583113
O        0.00000000       0.00000000       0.00000000       0.12141087      -1.14589942      -1.42349910
O        0.00000000       0.00000000       0.00000000       0.28051503       0.86220233      -0.52313273
13
Lattice="529.1772105638412 0.0 0.0 0.0 529.1772105638412 0.0 0.0 0.0 529.1772105638412" Properties=species:S:1:pos:R:3:forces_component_raw:R:3 ipi_comment="Step:         260  Bead:       0 forces_component_raw{ase}  cell{ase}" pbc="T T T"
H        0.00000000       0.00000000       0.00000000      -0.10923269      -0.44498726       0.11071860
H        0.00000000       0.00000000       0.00000000      -0.28069794       0.32085026      -0.13902460
H        0.00000000       0.00000000       0.00000000      -0.23285248      -0.86183057       0.30553288
H        0.00000000       0.00000000       0.00000000      -0.27899934      -0.19275260      -0.11278152
H        0.00000000       0.00000000       0.00000000       0.11822666      -0.94582959       0.92175844
H        0.00000000       0.00000000       0.00000000       0.02487524      -0.25719954       0.21749325
H        0.00000000       0.00000000       0.00000000       0.43130774       0.74642652       0.49813315
H        0.00000000       0.00000000       0.00000000       0.27517909      -0.59072362      -1.64449477
H        0.00000000       0.00000000       0.00000000      -0.57726987      -0.16020249      -0.13532031
O        0.00000000       0.00000000       0.00000000       0.68582535      -0.17834323       1.00105799
O        0.00000000       0.00000000       0.00000000      -0.51524701       1.87656851      -1.09205046
O        0.00000000       0.00000000       0.00000000      -0.35906715      -0.16078082      -0.63900989
O        0.00000000       0.00000000       0.00000000       0.81795240       0.84880443       0.70798724
13
Lattice="529.1772105638412 0.0 0.0 0.0 529.1772105638412 0.0 0.0 0.0 529.1772105638412" Properties=species:S:1:pos:R:3:forces_component_raw:R:3 ipi_comment="Step:         280  Bead:       0 forces_component_raw{ase}  cell{ase}" pbc="T T T"
H        0.00000000       0.00000000       0.00000000       0.13413963       0.93770802       0.04025849
H        0.00000000       0.00000000       0.00000000      -0.04839353       0.08144108       0.43826880
H        0.00000000       0.00000000       0.00000000       0.56418282       0.79025341      -0.25265082
H        0.00000000       0.00000000       0.00000000      -0.38241587      -0.94156364       0.47405209
H        0.00000000       0.00000000       0.00000000       1.19451222      -0.44493067       0.56007568
H        0.00000000       0.00000000       0.00000000       0.05402215       0.41911328      -0.34132017
H        0.00000000       0.00000000       0.00000000       0.55283436       0.80955020       0.29896022
H        0.00000000       0.00000000       0.00000000      -0.76909920      -0.93398680      -1.64680038
H        0.00000000       0.00000000       0.00000000      -0.23539396      -0.02972889       0.46464777
O        0.00000000       0.00000000       0.00000000       1.00598929      -0.98732769      -0.91942645
O        0.00000000       0.00000000       0.00000000      -2.02045929       0.95874545      -0.71146752
O        0.00000000       0.00000000       0.00000000      -0.73408811      -1.33606912      -0.04903761
O        0.00000000       0.00000000       0.00000000       0.68416949       0.67679538       1.64443989
13
Lattice="529.1772105638412 0.0 0.0 0.0 529.1772105638412 0.0 0.0 0.0 529.1772105638412" Properties=species:S:1:pos:R:3:forces_component_raw:R:3 ipi_comment="Step:         300  Bead:       0 forces_component_raw{ase}  cell{ase}" pbc="T T T"
H        0.00000000       0.00000000       0.00000000      -0.35477013       0.86217334      -0.31981932
H        0.00000000       0.00000000       0.00000000      -0.44362613      -0.48858953       0.00791153
H        0.00000000       0.00000000       0.00000000       0.07497968      -0.98239650       0.23816750
H        0.00000000       0.00000000       0.00000000      -0.10598793      -0.81891470      -0.39995145
H        0.00000000       0.00000000       0.00000000      -0.25781204      -0.56959786       0.30933798
H        0.00000000       0.00000000       0.00000000      -0.13526937       0.07962351      -0.56931456
H        0.00000000       0.00000000       0.00000000       0.34956604       0.67057281       0.33347246
H        0.00000000       0.00000000       0.00000000      -0.98745392      -0.71566935      -1.16762972
H        0.00000000       0.00000000       0.00000000       0.08521399       0.02074801      -0.37921538
O        0.00000000       0.00000000       0.00000000       1.02637918      -1.07599736      -0.58282984
O        0.00000000       0.00000000       0.00000000      -0.23115544       2.47219819      -0.01267852
O        0.00000000       0.00000000       0.00000000      -0.15649814      -0.45987034       0.39626668
O        0.00000000       0.00000000       0.00000000       1.13643422       1.00571977       2.14628264
13
Lattice="529.1772105638412 0.0 0.0 0.0 529.1772105638412 0.0 0.0 0.0 529.1772105638412" Properties=species:S:1:pos:R:3:forces_component_raw:R:3 ipi_comment="Step:         320  Bead:       0 forces_component_raw{ase}  cell{ase}" pbc="T T T"
H        0.00000000       0.00000000       0.00000000      -0.40607096      -0.05234187       0.33808593
H        0.00000000       0.00000000       0.00000000       0.24436883       0.88215338       0.97016854
H        0.00000000       0.00000000       0.00000000       0.67348361       1.04137797      -0.55694175
H        0.00000000       0.00000000       0.00000000      -0.07487147      -0.40461700       0.31527842
H        0.00000000       0.00000000       0.00000000       0.78645661       0.70469788      -0.19060445
H        0.00000000       0.00000000       0.00000000      -0.22224433       0.47494089      -0.77643521
H        0.00000000       0.00000000       0.00000000       0.10579844       0.22320446      -0.25678275
H        0.00000000       0.00000000       0.00000000      -0.79517230      -0.67920093      -0.35837150
H        0.00000000       0.00000000       0.00000000       0.51279983       0.65439231       0.62728288
O        0.00000000       0.00000000       0.00000000      -0.64044107      -1.01537897      -0.14660135
O        0.00000000       0.00000000       0.00000000      -0.30406049      -1.36702991       0.20929635
O        0.00000000       0.00000000       0.00000000      -0.03429258      -0.09214359       0.82719895
O        0.00000000       0.00000000       0.00000000       0.15424586      -0.37005463      -1.00157404
13
Lattice="529.1772105638412 0.0 0.0 0.0 529.1772105638412 0.0 0.0 0.0 529.1772105638412" Properties=species:S:1:pos:R:3:forces_component_raw:R:3 ipi_comment="Step:         340  Bead:       0 forces_component_raw{ase}  cell{ase}" pbc="T T T"
H        0.00000000       0.00000000       0.00000000       0.18938026       0.07008726      -0.44601299
H        0.00000000       0.00000000       0.00000000       0.37168293      -0.45208065      -1.24699332
H        0.00000000       0.00000000       0.00000000      -0.02621857      -1.00702989       0.50480294
H        0.00000000       0.00000000       0.00000000       0.34272524       0.49617144       0.07021813
H        0.00000000       0.00000000       0.00000000      -0.77243003       0.68898574      -0.37974168
H        0.00000000       0.00000000       0.00000000      -0.40131782      -0.04354401      -0.63410027
H        0.00000000       0.00000000       0.00000000       0.13151658      -0.28159654       0.21883621
H        0.00000000       0.00000000       0.00000000      -0.31901331       0.35827205      -0.41029477
H        0.00000000       0.00000000       0.00000000       0.22607638       1.01904471      -0.67403298
O        0.00000000       0.00000000       0.00000000      -1.30395259       1.20986337       0.33836793
O        0.00000000       0.00000000       0.00000000       1.21016201      -0.64638258       0.12583917
O        0.00000000       0.00000000       0.00000000       0.38038433      -0.46832018       0.77608156
O        0.00000000       0.00000000       0.00000000      -0.02899542      -0.94347071       1.75703007
13
Lattice="529.1772105638412 0.0 0.0 0.0 529.1772105638412 0.0 0.0 0.0 529.1772105638412" Properties=species:S:1:pos:R:3:forces_component_raw:R:3 ipi_comment="Step:         360  Bead:       0 forces_component_raw{ase}  cell{ase}" pbc="T T T"
H        0.00000000       0.00000000       0.00000000      -0.22670133      -0.00928935      -0.11591273
H        0.00000000       0.00000000       0.00000000      -0.06658997       0.27283392       0.71857628
H        0.00000000       0.00000000       0.00000000      -0.77039446       0.82610847       0.42357577
H        0.00000000       0.00000000       0.00000000       0.44799883       0.36689230       0.56401290
H        0.00000000       0.00000000       0.00000000       0.39626050       1.25456331       0.00891355
H        0.00000000       0.00000000       0.00000000       0.24760584       0.51627425      -0.04879928
H        0.00000000       0.00000000       0.00000000      -0.55426263      -0.19946782      -0.60169837