13
Lattice="529.1772105638412 0.0 0.0 0.0 529.1772105638412 0.0 0.0 0.0 529.1772105638412" Properties=species:S:1:pos:R:3:forces_component_raw:R:3 ipi_comment="Step:           0  Bead:       0 forces_component_raw{ase}  cell{ase}" pbc="T T T"
H        0.00000000       0.00000000       0.00000000      -0.70667187       2.27597073       0.17730376
H        0.00000000       0.00000000       0.00000000       0.11703848       0.20820597      -0.07390999
H        0.00000000       0.00000000       0.00000000       2.91085011      -0.21896640       0.09074963
H        0.00000000       0.00000000       0.00000000       0.58564629      -0.28400298       0.28810709
H        0.00000000       0.00000000       0.00000000       0.63927527      -0.09189742       0.19465372
H        0.00000000       0.00000000       0.00000000      -0.04210084       0.41172512      -0.71154163
H        0.00000000       0.00000000       0.00000000       0.15622732      -0.74761222      -0.42513067
H        0.00000000       0.00000000       0.00000000      -0.01440708      -0.01642675      -0.02488317
H        0.00000000       0.00000000       0.00000000      -0.59287729      -0.26633979      -0.11246019
O        0.00000000       0.00000000       0.00000000      -2.33302575      -2.25380106      -0.19726444
O        0.00000000       0.00000000       0.00000000      -0.84615173      -0.00134081      -0.30825700
O        0.00000000       0.00000000       0.00000000      -0.47762101       0.65737994       0.97599393
O        0.00000000       0.00000000       0.00000000       0.60381810       0.32710569       0.12663896
13
Lattice="529.1772105638412 0.0 0.0 0.0 529.1772105638412 0.0 0.0 0.0 529.1772105638412" Properties=species:S:1:pos:R:3:forces_component_raw:R:3 ipi_comment="Step:          20  Bead:       0 forces_component_raw{ase}  cell{ase}" pbc="T T T"
H        0.00000000       0.00000000       0.00000000      -0.19632448      -4.49823418      -0.10457962
H        0.00000000       0.00000000       0.00000000       0.12807082       0.34045756      -0.12860372
H        0.00000000       0.00000000       0.00000000      -6.56275321      -0.35654431       0.81414525
H        0.00000000       0.00000000       0.00000000      -0.36474347      -1.17728432      -0.20036999
H        0.00000000       0.00000000       0.00000000      -1.16757123      -0.05664701      -0.44498125
H        0.00000000       0.00000000       0.00000000      -0.09377020       0.23227504      -0.95683100
H        0.00000000       0.00000000       0.00000000       0.18183937      -0.18421337      -0.59002342
H        0.00000000       0.00000000       0.00000000       0.58485009      -0.34717145       1.70912383
H        0.00000000       0.00000000       0.00000000      -0.29438556      -0.03734772      -0.27807025
O        0.00000000       0.00000000       0.00000000      -0.67644152      -1.35438620       0.62227070
O        0.00000000       0.00000000       0.00000000       7.98204161       1.34047558      -0.00664296
O        0.00000000       0.00000000       0.00000000       0.06072748       5.20645762       1.66068458
O        0.00000000       0.00000000       0.00000000       0.41846029       0.89216276      -2.09612215
13
Lattice="529.1772105638412 0.0 0.0 0.0 529.1772105638412 0.0 0.0 0.0 529.1772105638412" Properties=species:S:1:pos:R:3:forces_component_raw:R:3 ipi_comment="Step:          40  Bead:       0 forces_component_raw{ase}  cell{ase}" pbc="T T T"
H        0.00000000       0.00000000       0.00000000      -0.40398241       1.92712449       0.21685072
H        0.00000000       0.00000000       0.00000000      -0.75624711      -0.95143430       0.65687223
H        0.00000000       0.00000000       0.00000000       1.94901315      -0.25657481      -0.14092831
H        0.00000000       0.00000000       0.00000000       0.53760343       0.00555334       0.11454735
H        0.00000000       0.00000000       0.00000000      -0.55393253      -1.42303499      -0.31420935
H        0.00000000       0.00000000       0.00000000       0.03706856      -0.48760854       0.20319116
H        0.00000000       0.00000000       0.00000000       0.19791532      -0.77629150      -0.33481316
H        0.00000000       0.00000000       0.00000000       0.49866942      -0.28771901       0.98497559
H        0.00000000       0.00000000       0.00000000      -0.19007395      -0.01361229      -0.12194100
O        0.00000000       0.00000000       0.00000000      -0.72006450      -0.51556228      -0.16619251
O        0.00000000       0.00000000       0.00000000      -0.50026994       1.27146795       0.35469043
O        0.00000000       0.00000000       0.00000000      -0.38917430       0.33954386       0.06118625
O        0.00000000       0.00000000       0.00000000       0.29347487       1.16814810      -1.51422941
13
Lattice="529.1772105638412 0.0 0.0 0.0 529.1772105638412 0.0 0.0 0.0 529.1772105638412" Properties=species:S:1:pos:R:3:forces_component_raw:R:3 ipi_comment="Step:          60  Bead:       0 forces_component_raw{ase}  cell{ase}" pbc="T T T"
H        0.00000000       0.00000000       0.00000000       0.03101449       1.32151351       0.10468334
H        0.00000000       0.00000000       0.00000000      -0.11820396      -1.33301745       1.21580721
H        0.00000000       0.00000000       0.00000000       3.15896023       0.03377214       0.26542482
H        0.00000000       0.00000000       0.00000000      -0.45817252       0.02273211       0.02862900
H        0.00000000       0.00000000       0.00000000      -0.72972729       0.22089489       0.06451336
H        0.00000000       0.00000000       0.00000000      -0.13148967       0.05128926       0.95390335
H        0.00000000       0.00000000       0.00000000      -0.09002113       0.29487628      -0.35653904
H        0.00000000       0.00000000       0.00000000      -0.36766972      -0.30398237       0.16095809
H        0.00000000       0.00000000       0.00000000       0.07993705      -0.34664725       0.50473020
O        0.00000000       0.00000000       0.00000000      -2.81405999       0.50323674      -1.33423382
O        0.00000000       0.00000000       0.00000000       1.37124363      -0.40880072      -0.12000193
O        0.00000000       0.00000000       0.00000000       0.06582744      -1.15961514      -0.69968799
O        0.00000000       0.00000000       0.00000000       0.00236143       1.10374798      -0.78818658
13
Lattice="529.1772105638412 0.0 0.0 0.0 529.1772105638412 0.0 0.0 0.0 529.1772105638412" Properties=species:S:1:pos:R:3:forces_component_raw:R:3 ipi_comment="Step:          80  Bead:       0 forces_component_raw{ase}  cell{ase}" pbc="T T T"
H        0.00000000       0.00000000       0.00000000       0.14028160      -2.16231645      -0.18178760
H        0.00000000       0.00000000       0.00000000       0.40121945       1.91235848      -1.88675190
H        0.00000000       0.00000000       0.00000000      -4.97067690       0.37259190       0.15548881
H        0.00000000       0.00000000       0.00000000       0.02099131       0.91966410       0.18053423
H        0.00000000       0.00000000       0.00000000       0.28057081      -0.03603501      -0.19491710
H        0.00000000       0.00000000       0.00000000       0.47080977      -1.20751401       0.47522706
H        0.00000000       0.00000000       0.00000000      -0.07490818      -0.31383714       0.74476619
H        0.00000000       0.00000000       0.00000000      -0.34130489       1.31185683      -1.48641861
H        0.00000000       0.00000000       0.00000000       0.57152506       0.88768676      -1.11275910
O        0.00000000       0.00000000       0.00000000       0.31033042       1.41849192      -0.20007153
O        0.00000000       0.00000000       0.00000000       4.27547233      -1.38193033       0.05333931
O        0.00000000       0.00000000       0.00000000      -0.36212404       1.34771933      -0.92826390
O        0.00000000       0.00000000       0.00000000      -0.72218673      -3.06873639       4.38161415
13
Lattice="529.1772105638412 0.0 0.0 0.0 529.1772105638412 0.0 0.0 0.0 529.1772105638412" Properties=species:S:1:pos:R:3:forces_component_raw:R:3 ipi_comment="Step:         100  Bead:       0 forces_component_raw{ase}  cell{ase}" pbc="T T T"
H        0.00000000       0.00000000       0.00000000       1.01954389       0.06016052       0.68016538
H        0.00000000       0.00000000       0.00000000       1.35505819       0.65716329      -0.05244776
H        0.00000000       0.00000000       0.00000000      -0.46129244       0.45067788      -0.36805044
H        0.00000000       0.00000000       0.00000000      -1.55907141       0.15631799       1.34996860
H        0.00000000       0.00000000       0.00000000      -0.72279541       1.30484262       0.43527908
H        0.00000000       0.00000000       0.00000000       0.52174695      -0.23643394       0.80932700
H        0.00000000       0.00000000       0.00000000      -0.47897676       0.03597761       0.80673836
H        0.00000000       0.00000000       0.00000000      -1.13628361       1.33770631      -1.41785088
H        0.00000000       0.00000000       0.00000000       0.45869903       0.51285853       0.24750056
O        0.00000000       0.00000000       0.00000000      -0.47306148       0.56268831      -1.19809751
O        0.00000000       0.00000000       0.00000000       2.48381021      -1.70046951      -1.39059712
O        0.00000000       0.00000000       0.00000000      -0.36771660      -0.48488272      -2.03913478
O        0.00000000       0.00000000       0.00000000      -0.63966057      -2.65660689       2.13719951
13
Lattice="529.1772105638412 0.0 0.0 0.0 529.1772105638412 0.0 0.0 0.0 529.1772105638412" Properties=species:S:1:pos:R:3:forces_component_raw:R:3 ipi_comment="Step:         120  Bead:       0 forces_component_raw{ase}  cell{ase}" pbc="T T T"
H        0.00000000       0.00000000       0.00000000      -0.04642231      -1.94890438      -0.21543288
H        0.00000000       0.00000000       0.00000000      -1.03255938      -1.03635136       0.06304385
H        0.00000000       0.00000000       0.00000000       0.38233135      -0.03172913       0.30561713
H        0.00000000       0.00000000       0.00000000      -0.23182676       2.01958141       0.21226412
H        0.00000000       0.00000000       0.00000000       1.42292105       0.33655323      -0.90799477
H        0.00000000       0.00000000       0.00000000       0.25073470      -0.40398526       0.07501759
H        0.00000000       0.00000000       0.00000000      -0.31588660       0.42348285       0.65936607
H        0.00000000       0.00000000       0.00000000      -1.71465041       1.35887133      -0.86149539
H        0.00000000       0.00000000       0.00000000       1.09630253       0.94197975       0.06460202
O        0.00000000       0.00000000       0.00000000       0.30178378      -0.81099554       0.62939176
O        0.00000000       0.00000000       0.00000000      -1.30491086      -2.31723824       0.28263635
O        0.00000000       0.00000000       0.00000000      -0.44386387       2.73776292      -0.41798587
O        0.00000000       0.00000000       0.00000000       1.63604679      -1.26902759       0.11097002
13
Lattice="529.1772105638412 0.0 0.0 0.0 529.1772105638412 0.0 0.0 0.0 529.1772105638412" Properties=species:S:1:pos:R:3:forces_component_raw:R:3 ipi_comment="Step:         140  Bead:       0 forces_component_raw{ase}  cell{ase}" pbc="T T T"
H        0.00000000       0.00000000       0.00000000      -0.17449539       1.14979178       0.24923815
H        0.00000000       0.00000000       0.00000000       0.75611158       0.32157547       0.22729775
H        0.00000000       0.00000000       0.00000000       0.45081108       0.71619489       0.24309672
H        0.00000000       0.00000000       0.00000000      -1.29975227      -0.11029794       0.81745060
H        0.00000000       0.00000000       0.00000000       0.05139289       2.07870347      -0.41601220
H        0.00000000       0.00000000       0.00000000       0.15245980      -0.20324619       0.20447649
H        0.00000000       0.00000000       0.00000000       0.02822873       0.09971687      -0.02986475
H        0.00000000       0.00000000       0.00000000      -0.67697162       0.91597020      -0.56642722
H        0.00000000       0.00000000       0.00000000       0.57735013       0.21661363       1.00518886
O        0.00000000       0.00000000       0.00000000      -1.08840021      -2.25399256       0.34684039
O        0.00000000       0.00000000       0.00000000       1.40506463      -2.29008010      -0.35896631
O        0.00000000       0.00000000       0.00000000      -0.14288180       0.25087475      -0.04138458
O        0.00000000       0.00000000       0.00000000      -0.03891755      -0.89182425      -1.68093389
13
Lattice="529.1772105638412 0.0 0.0 0.0 529.1772105638412 0.0 0.0 0.0 529.1772105638412" Properties=species:S:1:pos:R:3:forces_component_raw:R:3 ipi_comment="Step:         160  Bead:       0 forces_component_raw{ase}  cell{ase}" pbc="T T T"
H        0.00000000       0.00000000       0.00000000       0.29724867      -0.07175612       0.58447724
H        0.00000000       0.00000000       0.00000000      -0.57574097       0.88846887      -1.18442261
H        0.00000000       0.00000000       0.00000000      -0.01512707      -0.66992545      -0.10133138
H        0.00000000       0.00000000       0.00000000       0.57044258       0.53919973      -0.32540787
H        0.00000000       0.00000000       0.00000000       1.96999842       1.65356209      -0.80396602
H        0.00000000       0.00000000       0.00000000       0.10553782      -0.14821320      -0.28060245
H        0.00000000       0.00000000       0.00000000       0.39637879      -0.67704356      -0.22813723
H        0.00000000       0.00000000       0.00000000       0.00082567       0.86030729      -0.53721246
H        0.00000000       0.00000000       0.00000000       0.37221738       0.65542615      -0.81759626
O        0.00000000       0.00000000       0.00000000      -0.42252416      -0.51680527       1.22652324
O        0.00000000       0.00000000       0.00000000      -2.62914776      -1.89153123       1.20140390
O        0.00000000       0.00000000       0.00000000      -0.68808253       0.73675685       0.17407010
O        0.00000000       0.00000000       0.00000000       0.61797317      -1.35844615       1.09220180
13
Lattice="529.1772105638412 0.0 0.0 0.0 529.1772105638412 0.0 0.0 0.0 529.1772105638412" Properties=species:S:1:pos:R:3:forces_component_raw:R:3 ipi_comment="Step:         180  Bead:       0 forces_component_raw{ase}  cell{ase}" pbc="T T T"
H        0.00000000       0.00000000       0.00000000       0.24382192      -0.31740661      -0.54945806
H        0.00000000       0.00000000       0.00000000       1.33041184      -0.14519715       0.62110581
H        0.00000000       0.00000000       0.00000000      -0.39160518       0.70670144       0.31845659
H        0.00000000       0.00000000       0.00000000       0.23523019      -2.37401389       0.45323038
H        0.00000000       0.00000000       0.00000000       0.40470682       2.03036551      -0.40814997
H        0.00000000       0.00000000       0.00000000      -0.74733889       0.26406132      -0.90653363
H        0.00000000       0.00000000       0.00000000       0.09971038      -0.00627447      -0.69180246
H        0.00000000       0.00000000       0.00000000      -0.03820449       0.04539946      -0.36059575
H        0.00000000       0.00000000       0.00000000      -0.21282385      -0.29152191       0.44386875
O        0.00000000       0.00000000       0.00000000      -1.02112597      -0.08381663      -0.07229967
O        0.00000000       0.00000000       0.00000000      -0.07698237      -0.03853014      -0.04542273
O        0.00000000       0.00000000       0.00000000       0.67741154      -0.15725301       1.96591465
O        0.00000000       0.00000000       0.00000000      -0.50321193       0.36748608      -0.76831392
13
Lattice="529.1772105638412 0.0 0.0 0.0 529.1772105638412 0.0 0.0 0.0 529.1772105638412" Properties=species:S:1:pos:R:3:forces_component_raw:R:3 ipi_comment="Step:         200  Bead:       0 forces_component_raw{ase}  cell{ase}" pbc="T T T"
H        0.00000000       0.00000000       0.00000000       0.02588354      -0.98684284       0.94827970
H        0.00000000       0.00000000       0.00000000      -1.16367067       0.35225527      -0.39872729
H        0.00000000       0.00000000       0.00000000       0.28658232      -0.34401457       0.58832383
H        0.00000000       0.00000000       0.00000000       1.38509195      -1.53126039       0.80097828
H        0.00000000       0.00000000       0.00000000       0.52507571      -0.32666018       0.20971730
H        0.00000000       0.00000000       0.00000000       0.07653234      -0.19107936      -0.57600945
H        0.00000000       0.00000000       0.00000000       0.52574081      -0.63048521       0.33918856
H        0.00000000       0.00000000       0.00000000       0.78947897      -0.28743915       1.10989135
H        0.00000000       0.00000000       0.00000000      -1.14490205      -0.14473525      -0.57496960
O        0.00000000       0.00000000       0.00000000       0.77725556       0.95986702      -1.57727295
O        0.00000000       0.00000000       0.00000000      -2.10083393       2.11219908      -1.35755952
O        0.00000000       0.00000000       0.00000000      -0.50620158       1.17521377      -0.43304723
O        0.00000000       0.00000000       0.00000000       0.52396702      -0.15701817       0.92120701
13
Lattice="529.1772105638412 0.0 0.0 0.0 529.1772105638412 0.0 0.0 0.0 529.1772105638412" Properties=species:S:1:pos:R:3:forces_component_raw:R:3 ipi_comment="Step:         220  Bead:       0 forces_component_raw{ase}  cell{ase}" pbc="T T T"
H        0.00000000       0.00000000       0.00000000       0.25847669       0.03633721      -0.85102140
H        0.00000000       0.00000000       0.00000000       1.81207385       0.30853840      -0.60694515
H        0.00000000       0.00000000       0.00000000      -3.24409755       0.31234125      -0.35185385
H        0.00000000       0.00000000       0.00000000       0.11655049      -0.83125383       0.32805524
H        0.00000000       0.00000000       0.00000000      -1.13266999      -0.15057204      -0.22132679
H        0.00000000       0.00000000       0.00000000       0.45735327      -0.47631548       0.64754542
H        0.00000000       0.00000000       0.00000000      -0.27451065       0.46941871       0.26731080
H        0.00000000       0.00000000       0.00000000       1.39119835      -0.32134492       1.82504975
H        0.00000000       0.00000000       0.00000000      -2.06105722      -0.28057147      -0.19342848
O        0.00000000       0.00000000       0.00000000      -0.09346383       0.79759691       0.09327105
O        0.00000000       0.00000000       0.00000000       3.47371785       0.41190900      -0.05796385
O        0.00000000       0.00000000       0.00000000      -0.16102857      -0.20158055      -0.40986059
O        0.00000000       0.00000000       0.00000000      -0.54254270      -0.07450320      -0.46883216
13
Lattice="529.1772105638412 0.0 0.0 0.0 529.1772105638412 0.0 0.0 0.0 529.1772105638412" Properties=species:S:1:pos:R:3:forces_component_raw:R:3 ipi_comment="Step:         240  Bead:       0 forces_component_raw{ase}  cell{ase}" pbc="T T T"
H        0.00000000       0.00000000       0.00000000       0.85697297       0.38856118       0.16483398
H        0.00000000       0.00000000       0.00000000      -0.20157376       0.59633491      -0.36874080
H        0.00000000       0.00000000       0.00000000      -0.61161162      -0.72648310       0.11875863
H        0.00000000       0.00000000       0.00000000      -0.84997244       0.01997791      -0.38090154
H        0.00000000       0.00000000       0.00000000      -0.29063519      -0.84357652      -0.12268194
H        0.00000000       0.00000000       0.00000000       0.69105612      -0.38765486       0.47968180
H        0.00000000       0.00000000       0.00000000       0.07255504       0.13240764       1.10018199
H        0.00000000       0.00000000       0.00000000       1.01436777      -0.13067519       1.30922783
H        0.00000000       0.00000000       0.00000000      -0.19805335       0.03805165      -0.50697172
O        0.00000000       0.00000000       0.00000000       0.11282101       0.53459924       0.28733809
O        0.00000000       0.00000000       0.00000000       1.01633209       1.37355188       0.25198244
O        0.00000000       0.00000000       0.00000000      -0.82626078      -0.59754766      -1.95044486
O        0.00000000       0.00000000       0.00000000      -0.78599785      -0.39754708      -0.38226388
13
Lattice="529.1772105638412 0.0 0.0 0.0 529.1772105638412 0.0 0.0 0.0 529.1772105638412" Properties=species:S:1:pos:R:3:forces_component_raw:R:3 ipi_comment="Step:         260  Bead:       0 forces_component_raw{ase}  cell{ase}" pbc="T T T"
H        0.00000000       0.00000000       0.00000000      -1.14716471      -0.00127304       0.21000774
H        0.00000000       0.00000000       0.00000000      -0.53683225       0.07548274       0.33311598
H        0.00000000       0.00000000       0.00000000       0.31607069       1.20032878      -0.03493693
H        0.00000000       0.00000000       0.00000000      -0.24882004       0.25501545      -0.83964788
H        0.00000000       0.00000000       0.00000000      -0.28451662      -0.82735405       0.18102104
H        0.00000000       0.00000000       0.00000000       1.30480696      -0.51347322       0.82027751
H        0.00000000       0.00000000       0.00000000       0.01570691       0.40713330       0.84658311
H        0.00000000       0.00000000       0.00000000      -0.19720699      -0.00527035       0.03936526
H        0.00000000       0.00000000       0.00000000       0.57697542       0.15461542      -0.03809510
O        0.00000000       0.00000000       0.00000000       0.30274922      -0.58347370      -0.17345049
O        0.00000000       0.00000000       0.00000000       0.36398570      -0.19430364       0.74853505
O        0.00000000       0.00000000       0.00000000      -0.60419720       0.04036715      -1.66768584
O        0.00000000       0.00000000       0.00000000       0.13844292      -0.00779486      -0.42508944
13
Lattice="529.1772105638412 0.0 0.0 0.0 529.1772105638412 0.0 0.0 0.0 529.1772105638412" Properties=species:S:1:pos:R:3:forces_component_raw:R:3 ipi_comment="Step:         280  Bead:       0 forces_component_raw{ase}  cell{ase}" pbc="T T T"
H        0.00000000       0.00000000       0.00000000      -0.95836187       0.97089028       0.57735073
H        0.00000000       0.00000000       0.00000000       0.40432649      -0.36545931       0.43858625
H        0.00000000       0.00000000       0.00000000       1.32718095      -0.57265457      -0.00222183
H        0.00000000       0.00000000       0.00000000      -0.67707095       0.04343473      -1.86510319
H        0.00000000       0.00000000       0.00000000       0.34844439      -0.95453068       0.12716589
H        0.00000000       0.00000000       0.00000000       0.80520375       0.22516083       0.58180171
H        0.00000000       0.00000000       0.00000000      -0.14808270       0.01608295      -0.34532307
H        0.00000000       0.00000000       0.00000000      -0.20013216       0.14097116      -0.68568604
H        0.00000000       0.00000000       0.00000000       0.13290036      -0.01354618      -0.01635447
O        0.00000000       0.00000000       0.00000000      -0.67115799      -0.95679478      -0.28707217
O        0.00000000       0.00000000       0.00000000       0.10757496       1.42079379       1.79726368
O        0.00000000       0.00000000       0.00000000      -0.47653689      -0.26199972      -0.39975263
O        0.00000000       0.00000000       0.00000000       0.00571165       0.30765150       0.07934514
13
Lattice="529.1772105638412 0.0 0.0 0.0 529.1772105638412 0.0 0.0 0.0 529.1772105638412" Properties=species:S:1:pos:R:3:forces_component_raw:R:3 ipi_comment="Step:         300  Bead:       0 forces_component_raw{ase}  cell{ase}" pbc="T T T"
H        0.00000000       0.00000000       0.00000000       1.48828474      -0.78916400      -0.48335063
H        0.00000000       0.00000000       0.00000000      -0.40273304      -0.50095362      -0.35735805
H        0.00000000       0.00000000       0.00000000      -1.43306080       0.53915553      -0.02396474
H        0.00000000       0.00000000       0.00000000      -1.42264916       0.07847549      -2.14689457
H        0.00000000       0.00000000       0.00000000      -1.34118860      -0.64441283       0.11367295
H        0.00000000       0.00000000       0.00000000      -0.61397747      -0.23195871      -0.43738658
H        0.00000000       0.00000000       0.00000000       0.20965648      -0.58137964      -0.59431765
H        0.00000000       0.00000000       0.00000000      -0.61038741      -0.15280085      -0.94574450
H        0.00000000       0.00000000       0.00000000       0.58615123      -0.24996770      -0.18238095
O        0.00000000       0.00000000       0.00000000      -0.62187298      -0.20813104       0.75805386
O        0.00000000       0.00000000       0.00000000       3.80979849       0.16608993       2.12291043
O        0.00000000       0.00000000       0.00000000      -0.22811368       1.44047277       1.24896875
O        0.00000000       0.00000000       0.00000000       0.58009220       1.13457465       0.92779169
13
Lattice="529.1772105638412 0.0 0.0 0.0 529.1772105638412 0.0 0.0 0.0 529.1772105638412" Properties=species:S:1:pos:R:3:forces_component_raw:R:3 ipi_comment="Step:         320  Bead:       0 forces_component_raw{ase}  cell{ase}" pbc="T T T"
H        0.00000000       0.00000000       0.00000000      -0.42091764      -0.56352326       0.12543810
H        0.00000000       0.00000000       0.00000000       0.30241264       0.08681336       0.02228831
H        0.00000000       0.00000000       0.00000000      -0.07513527       0.35855464       0.34793328
H        0.00000000       0.00000000       0.00000000      -1.17072636       0.64365404      -1.39279077
H        0.00000000       0.00000000       0.00000000      -0.00440103       0.62245314      -0.79000477
H        0.00000000       0.00000000       0.00000000      -1.33773331      -0.32801001      -0.65423973
H        0.00000000       0.00000000       0.00000000      -0.03617345      -0.56318090      -0.54607014
H        0.00000000       0.00000000       0.00000000      -0.70656717       0.64041545      -1.23698925
H        0.00000000       0.00000000       0.00000000       0.63902866      -0.26214039       0.03329663
O        0.00000000       0.00000000       0.00000000      -1.49022047      -0.80736489       0.58662027
O        0.00000000       0.00000000       0.00000000       1.86855109      -1.45467475       2.13329909
O        0.00000000       0.00000000       0.00000000       1.87076427       1.27797454       1.23594588
O        0.00000000       0.00000000       0.00000000       0.56111803       0.34902903       0.13527309
13
Lattice="529.1772105638412 0.0 0.0 0.0 529.1772105638412 0.0 0.0 0.0 529.1772105638412" Properties=species:S:1:pos:R:3:forces_component_raw:R:3 ipi_comment="Step:         340  Bead:       0 forces_component_raw{ase}  cell{ase}" pbc="T T T"
H        0.00000000       0.00000000       0.00000000      -0.28202639       0.57124084       0.59898811
H        0.00000000       0.00000000       0.00000000      -0.83274463       0.31699000       0.57805227
H        0.00000000       0.00000000       0.00000000       0.84006516      -0.36959089      -0.16515505
H        0.00000000       0.00000000       0.00000000       0.02137428       0.24818868      -0.49417020
H        0.00000000       0.00000000       0.00000000       0.61683166       0.30973563      -0.81361000
H        0.00000000       0.00000000       0.00000000      -0.63520431       0.15096483      -0.06552022
H        0.00000000       0.00000000       0.00000000      -0.05250126       0.06247222       0.07901897
H        0.00000000       0.00000000       0.00000000      -0.34178237       0.48566572      -0.98638758
H        0.00000000       0.00000000       0.00000000       1.06259641      -0.06914258      -0.86559597
O        0.00000000       0.00000000       0.00000000      -0.35585967      -0.32080746      -0.58186955
O        0.00000000       0.00000000       0.00000000      -0.94183708      -0.31860602       1.57289797
O        0.00000000       0.00000000       0.00000000       0.90657518      -0.57470177      -0.29271782
O        0.00000000       0.00000000       0.00000000      -0.00548697      -0.49240919       1.43606906
13
Lattice="529.1772105638412 0.0 0.0 0.0 529.1772105638412 0.0 0.0 0.0 529.1772105638412" Properties=species:S:1:pos:R:3:forces_component_raw:R:3 ipi_comment="Step:         360  Bead:       0 forces_component_raw{ase}  cell{ase}" pbc="T T T"
H        0.00000000       0.00000000       0.00000000      -0.63953500       0.30522630      -0.65340596
H        0.00000000       0.00000000       0.00000000       0.27962390      -0.88650640       0.03822564
H        0.00000000       0.00000000       0.00000000       0.45002114       0.42735883      -0.16586854
H        0.00000000       0.00000000       0.00000000       0.17987659      -0.38508006       0.61795555
H        0.00000000       0.00000000       0.00000000      -0.15466258       0.08824515      -0.81461863
H        0.00000000       0.00000000       0.00000000       0.12425839      -0.67460878      -0.10274580
H        0.00000000       0.00000000       0.00000000       0.68117675       0.87139391       0.49928449