13
# CELL(abcABC):  529.17722   529.17722   529.17722    90.00000    90.00000    90.00000  Step:           0  Bead:       0 forces{eV/ang}  cell{angstrom}
       H -2.48903e-01  1.50509e+00  1.93642e-01
       H -1.74844e-01 -1.89740e-01  1.80662e-01
       H  1.86731e+00 -1.74989e-01 -9.10121e-02
       H  5.70960e-01 -4.56356e-01  2.26002e-01
       H  3.37005e-01 -1.14507e-02  1.15879e-02
       H -1.75132e-02  2.72044e-01 -6.93628e-01
       H  1.06171e-01 -7.38176e-01 -3.35341e-01
       H  7.50775e-02  1.21317e-01 -2.83879e-01
       H -4.09778e-01 -1.07301e-01 -2.96038e-01
       O -1.69818e+00 -1.41592e+00  3.74644e-01
       O -9.41344e-01  3.00203e-01 -6.17967e-02
       O -2.75903e-01  3.56740e-01  8.50450e-01
       O  8.09944e-01  5.38534e-01 -7.52931e-02
13
# CELL(abcABC):  529.17722   529.17722   529.17722    90.00000    90.00000    90.00000  Step:          20  Bead:       0 forces{eV/ang}  cell{angstrom}
       H  5.40722e-03 -5.22266e-01 -2.90149e-01
       H -1.73305e-01  7.51163e-02  4.20658e-01
       H -5.29937e-01 -2.34364e-01  1.76145e-01
       H -9.04666e-03 -8.85106e-01 -2.55042e-02
       H -7.71341e-01 -6.60924e-01 -4.53385e-01
       H -1.95193e-01  4.93397e-01 -6.76866e-01
       H  8.17952e-02 -1.12768e-01 -7.43783e-01
       H  4.36336e-01 -2.42353e-01  1.06249e+00
       H -9.43644e-02 -5.24517e-02 -6.61015e-02
       O  4.81655e-01 -3.00406e-01  3.06373e-01
       O  8.04734e-01  1.55705e+00  3.37928e-01
       O -9.32788e-02  2.10184e-01  1.64135e+00
       O  5.65388e-02  6.74892e-01 -1.68915e+00
13
# CELL(abcABC):  529.17722   529.17722   529.17722    90.00000    90.00000    90.00000  Step:          40  Bead:       0 forces{eV/ang}  cell{angstrom}
       H -2.52907e-01  7.03140e-01  1.04405e-01
       H -6.92122e-02 -1.90677e-01 -4.17057e-01
       H  7.87696e-01  3.96316e-02  6.82392e-02
       H  4.75177e-01  3.90693e-01  1.02983e-01
       H -3.89787e-01 -1.69706e+00 -3.92408e-01
       H -3.22759e-02 -1.34881e-02  1.71104e-01
       H  1.71695e-01 -2.90054e-01 -4.21370e-01
       H  4.89626e-01 -3.78414e-01  9.61858e-01
       H -6.09053e-02  1.22281e-02 -1.36863e-01
       O -1.35130e+00 -1.38014e+00  8.45225e-01
       O  5.26513e-01  1.04187e+00  2.42704e-01
       O -2.70445e-01  9.05240e-01  1.22883e-01
       O -2.38758e-02  8.57028e-01 -1.25170e+00
13
# CELL(abcABC):  529.17722   529.17722   529.17722    90.00000    90.00000    90.00000  Step:          60  Bead:       0 forces{eV/ang}  cell{angstrom}
       H -5.74923e-02 -2.21629e-01  2.41298e-01
       H  1.41299e-01 -4.72814e-01  3.64632e-01
       H -3.44342e-01  1.10587e-02 -2.52546e-01
       H -8.14138e-01  2.76099e-01  1.14098e-01
       H -1.40766e+00 -4.82164e-01  6.37060e-02
       H  2.73181e-01 -4.65241e-01  3.84778e-01
       H -1.77469e-01 -8.36530e-02  4.93825e-01
       H  3.51988e-01 -2.13957e-01  3.78770e-01
       H -1.47489e-01 -7.71339e-02  3.03846e-02
       O  2.23747e-01  1.75820e+00 -9.79098e-01
       O  3.14209e+00 -2.28180e-02 -1.35362e-01
       O -1.43071e-01  1.96445e-01 -1.08239e+00
       O -1.04064e+00 -2.02390e-01  3.77901e-01
13
# CELL(abcABC):  529.17722   529.17722   529.17722    90.00000    90.00000    90.00000  Step:          80  Bead:       0 forces{eV/ang}  cell{angstrom}
       H  3.69069e-01 -3.08702e-02 -2.36899e-01
       H -3.50494e-01  7.93939e-01 -4.10313e-01
       H  1.11401e-01  2.00754e-01 -1.85599e-01
       H  3.54946e-02  1.56923e+00  3.64039e-01
       H -6.64546e-03 -7.45362e-01 -2.11074e-01
       H  4.69980e-02 -2.22325e-01  4.73370e-01
       H -7.13035e-01  7.37007e-01  6.75807e-01
       H -9.34582e-01  1.87569e-01 -1.65676e-01
       H  2.29838e-01 -1.15945e-01  2.05087e-01
       O  1.10406e-01  1.19611e+00 -1.00668e+00
       O  7.72145e-01 -1.14830e+00 -1.48607e-01
       O  2.87872e-01 -1.07098e+00 -9.14353e-01
       O  4.15326e-02 -1.35083e+00  1.56090e+00
13
# CELL(abcABC):  529.17722   529.17722   529.17722    90.00000    90.00000    90.00000  Step:         100  Bead:       0 forces{eV/ang}  cell{angstrom}
       H -1.17689e-01  3.84369e-01  3.26440e-01
       H  5.56402e-01 -4.01628e-01  4.07154e-01
       H  2.00410e-01 -4.55776e-01  5.23369e-01
       H -1.03214e+00  7.13609e-01  1.18587e+00
       H -1.38874e-01  3.32381e-01  4.03263e-01
       H  2.66378e-01 -1.59947e-02  4.93132e-01
       H -9.07259e-01  6.04751e-01  1.00136e+00
       H -7.37048e-01  1.31344e+00 -7.12417e-01
       H -2.25692e-02  3.83129e-01 -3.19283e-03
       O -2.94810e-01 -4.19716e-01 -6.52767e-01
       O  1.43484e+00 -9.96911e-01 -1.81803e+00
       O  3.84666e-01  2.85874e-01 -1.84132e+00
       O  4.07687e-01 -1.72753e+00  6.87147e-01
13
# CELL(abcABC):  529.17722   529.17722   529.17722    90.00000    90.00000    90.00000  Step:         120  Bead:       0 forces{eV/ang}  cell{angstrom}
       H  1.82762e-01 -7.17264e-01 -2.91100e-01
       H -6.95420e-01 -2.70067e-01 -4.72648e-01
       H  1.97898e-01  4.11318e-01 -6.77708e-01
       H -7.00991e-01  1.37689e+00  5.50370e-01
       H  6.12536e-01  3.99546e-01 -4.54941e-01
       H -8.00029e-02 -3.29124e-02  2.81395e-01
       H -6.87028e-01  5.66281e-01  5.51001e-01
       H -1.55964e+00  6.00333e-01 -4.75622e-01
       H  7.55335e-01  7.80239e-02  1.51165e-01
       O  1.25581e-01 -1.58819e+00  1.78014e+00
       O -2.10276e-01 -1.87146e+00  3.36760e-02
       O  4.04230e-01  1.23672e+00 -7.67592e-01
       O  1.65502e+00 -1.89216e-01 -2.08140e-01
13
# CELL(abcABC):  529.17722   529.17722   529.17722    90.00000    90.00000    90.00000  Step:         140  Bead:       0 forces{eV/ang}  cell{angstrom}
       H -2.02521e-01 -2.35145e-01 -3.10157e-02
       H  7.99961e-01  1.75881e-01  3.42188e-01
       H -2.78725e-01 -7.54863e-02  5.24293e-01
       H -6.61863e-01  1.09625e-01  3.52871e-01
       H  6.46456e-01  1.71676e+00 -5.47115e-01
       H  1.23688e-01 -2.20592e-01  6.37696e-02
       H -7.85435e-02 -5.71859e-02  2.26905e-01
       H  4.19046e-01  6.67945e-01 -2.83267e-01
       H  2.55723e-01  6.60205e-01  1.56648e-01
       O -1.72640e-01  2.53702e-01  1.18102e-01
       O  2.56834e-02 -1.74441e+00 -7.18089e-02
       O  1.07421e-01 -4.83006e-02 -2.96496e-01
       O -9.83685e-01 -1.20300e+00 -5.55074e-01
13
# CELL(abcABC):  529.17722   529.17722   529.17722    90.00000    90.00000    90.00000  Step:         160  Bead:       0 forces{eV/ang}  cell{angstrom}
       H  1.31715e-01  6.44961e-01  8.32840e-02
       H -8.41964e-01  5.42914e-01 -5.01450e-01
       H -2.50955e-03  2.03221e-01  1.23909e-01
       H  3.45564e-01 -6.64545e-03 -1.79147e-01
       H  1.24362e+00  1.38745e+00 -7.13232e-01
       H  1.56826e-01 -1.11903e-01  8.33617e-02
       H  2.56798e-01 -1.91766e-03 -2.51444e-01
       H -1.49185e-01 -5.32974e-01  4.70521e-01
       H -1.74451e-01 -2.34093e-01 -1.41381e-01
       O -1.20378e-01 -4.51654e-01  5.13217e-01
       O -1.54442e+00 -1.45111e+00  7.72708e-01
       O -3.98929e-01 -6.21128e-01  1.47824e-01
       O  1.09731e+00  6.32875e-01 -4.08173e-01
13
# CELL(abcABC):  529.17722   529.17722   529.17722    90.00000    90.00000    90.00000  Step:         180  Bead:       0 forces{eV/ang}  cell{angstrom}
       H  5.93743e-02 -1.54126e-01 -2.30556e-01
       H  1.28754e-02 -1.00022e+00  9.75618e-01
       H -1.01366e-01 -1.76371e-01 -1.38782e-01
       H  7.44109e-01 -2.05220e+00 -1.12039e-01
       H  4.83959e-01  1.27284e+00 -2.48246e-01
       H -2.76710e-01  2.61954e-01 -7.01706e-01
       H  5.21746e-01 -1.19104e-01 -8.28989e-01
       H  1.09009e+00 -7.44022e-01  8.85946e-01
       H -6.44270e-01  1.84394e-01 -3.08778e-01
       O  4.13733e-01  2.59439e+00 -1.38757e+00
       O -1.31545e+00  6.55177e-01  4.90938e-01
       O  2.11583e-02 -1.08525e+00  1.62810e+00
       O -1.00925e+00  3.62541e-01 -2.39335e-02
13
# CELL(abcABC):  529.17722   529.17722   529.17722    90.00000    90.00000    90.00000  Step:         200  Bead:       0 forces{eV/ang}  cell{angstrom}
       H -2.44421e-01 -5.38495e-02  5.22494e-01
       H -1.70118e-01  7.61665e-01 -4.68129e-01
       H  4.67920e-01  2.90122e-01 -3.08531e-01
       H  1.28807e+00 -1.56062e+00 -3.15721e-02
       H  6.79751e-02 -2.67542e-01  4.33123e-03
       H  1.56136e-01 -1.93390e-01 -6.75593e-02
       H  2.60301e-01 -2.52833e-01 -2.88200e-01
       H  2.48355e-01 -1.20737e+00  1.36570e+00
       H -1.25282e+00 -5.55541e-01  1.26553e-01
       O -9.08637e-02  5.28058e-01 -3.63130e-01
       O -1.38621e+00  1.57691e+00  1.13819e-01
       O -9.87242e-02 -2.14082e-01  1.92866e-01
       O  7.54393e-01  1.14847e+00 -7.98644e-01
13
# CELL(abcABC):  529.17722   529.17722   529.17722    90.00000    90.00000    90.00000  Step:         220  Bead:       0 forces{eV/ang}  cell{angstrom}
       H  5.07121e-01  3.49672e-01 -5.72818e-01
       H  4.81233e-01 -2.23133e-01 -2.37675e-01
       H -2.19309e-01 -5.28505e-01  5.11627e-01
       H -1.93708e-01 -2.80928e-01  4.12557e-02
       H -8.26820e-01 -8.38577e-01  1.58424e-01
       H  1.99741e-01 -5.12558e-01  3.64044e-01
       H -6.50057e-02  6.69194e-02  1.00428e-01
       H  1.19390e+00 -5.95349e-01  7.21046e-01
       H -1.58843e+00  2.10553e-01 -6.74707e-01
       O -4.25877e-01 -1.00616e-01  4.27821e-01
       O  7.83366e-01  1.43732e+00 -3.67802e-01
       O -2.91237e-01  5.18565e-01 -2.84172e-01
       O  4.45026e-01  4.96634e-01 -1.87472e-01
13
# CELL(abcABC):  529.17722   529.17722   529.17722    90.00000    90.00000    90.00000  Step:         240  Bead:       0 forces{eV/ang}  cell{angstrom}
       H -1.78417e-01 -7.20549e-01  5.24549e-01
       H -5.80620e-01  7.03027e-01 -1.48930e-01
       H -1.54620e-01  3.05423e-01 -7.45709e-01
       H -4.28928e-01  1.11752e+00 -4.31104e-01
       H -6.05559e-01 -9.71085e-01  4.20607e-01
       H -8.88699e-02  1.00490e-01  6.36646e-01
       H -1.90549e-01  6.36881e-01  5.82429e-01
       H -2.00547e-01 -2.95105e-01  1.10307e-01
       H  5.10412e-02 -2.80832e-01  1.77755e-01
       O  1.12230e+00 -1.89491e+00  1.19746e+00
       O  8.87334e-01 -3.02541e-01  2.64503e-01
       O -3.64001e-01  8.15071e-01 -1.64255e+00
       O  7.31438e-01  7.86609e-01 -9.45958e-01
13
# CELL(abcABC):  529.17722   529.17722   529.17722    90.00000    90.00000    90.00000  Step:         260  Bead:       0 forces{eV/ang}  cell{angstrom}
       H -1.17180e-01  3.69436e-01 -6.64598e-01
       H  6.59217e-01 -5.48742e-01 -3.62338e-02
       H  2.60018e-01 -1.93725e-01  2.62827e-01
       H -1.46822e+00  1.30674e+00 -7.94768e-01
       H -6.52559e-01 -7.42214e-01  3.36919e-01
       H  5.08251e-02 -3.75690e-01  5.32858e-01
       H -9.54002e-02  3.69171e-01  4.21146e-01
       H -3.64434e-01  6.94604e-01 -6.10836e-01
       H  1.18393e+00  1.75055e-01  3.03721e-02
       O -9.63624e-01 -1.04603e+00  1.06408e+00
       O  2.33384e+00 -5.37474e-01  3.37160e-01
       O -2.87561e-01  7.83725e-01 -7.78582e-01
       O -5.38860e-01 -2.54858e-01 -1.00348e-01
13
# CELL(abcABC):  529.17722   529.17722   529.17722    90.00000    90.00000    90.00000  Step:         280  Bead:       0 forces{eV/ang}  cell{angstrom}
       H -2.16392e-01 -2.33750e-01  4.72004e-01
       H -5.25341e-01  2.65181e-01  9.51622e-02
       H -3.83828e-02  4.79463e-02 -2.71650e-01
       H -1.12524e+00  1.98409e+00 -1.63085e+00
       H  3.46952e-02 -8.27563e-01  5.81554e-01
       H -1.35546e-01  2.36121e-01 -1.89363e-01
       H  1.33357e-01 -2.34398e-01 -1.08874e-01
       H -9.60161e-01  1.03228e+00 -2.13945e-01
       H  7.35134e-01  1.14339e-01 -1.35514e-01
       O  4.00146e-01  4.80089e-01 -3.41468e-01
       O  9.57263e-01 -1.23417e+00  1.25564e+00
       O  2.19241e-01 -9.68739e-02 -3.91628e-02
       O  5.21227e-01 -1.53329e+00  5.26463e-01
13
# CELL(abcABC):  529.17722   529.17722   529.17722    90.00000    90.00000    90.00000  Step:         300  Bead:       0 forces{eV/ang}  cell{angstrom}
       H  2.49667e-01 -3.14027e-02 -4.44147e-01
       H  6.90713e-01 -3.99402e-01  1.63568e-02
       H  1.00444e-02  1.57903e-01  1.64896e-01
       H -1.63045e+00  8.54819e-01 -1.05424e+00
       H -6.79506e-01 -3.12914e-01  5.15432e-02
       H -6.06237e-02  6.05326e-01 -1.59060e+00
       H -2.87403e-01 -2.73991e-01 -2.84647e-01
       H -4.89290e-01  1.80456e+00 -1.36798e-01
       H  1.08110e+00 -3.00999e-02  1.45753e-01
       O -7.51735e-01  1.25507e+00 -4.18001e-01
       O  2.08421e+00 -6.55995e-01  1.00204e+00
       O  9.05295e-01 -8.61834e-01  2.15731e+00
       O -1.12201e+00 -2.11204e+00  3.90538e-01
13
# CELL(abcABC):  529.17722   529.17722   529.17722    90.00000    90.00000    90.00000  Step:         320  Bead:       0 forces{eV/ang}  cell{angstrom}
       H -2.27303e-01  5.48243e-02  3.12128e-01
       H -5.77274e-01  3.03175e-01 -4.99324e-02
       H  2.54235e-01 -3.40667e-02 -2.48321e-01
       H -3.10779e-01  7.19393e-01 -6.66294e-01
       H  7.50846e-01  6.21150e-01 -1.72591e-01
       H -3.19465e-01  1.14910e+00 -2.27035e+00
       H -2.78870e-01 -1.16756e-02 -8.11864e-02
       H -2.81522e-01  1.53545e+00  4.55484e-01
       H  9.40430e-01 -4.94746e-01  2.39064e-01
       O  1.99778e-01  3.92518e-01 -3.03121e-01
       O -7.19434e-01 -1.24091e+00  1.00876e+00
       O  1.15250e+00 -1.58003e+00  2.31484e+00
       O -5.83138e-01 -1.41419e+00 -5.38480e-01
13
# CELL(abcABC):  529.17722   529.17722   529.17722    90.00000    90.00000    90.00000  Step:         340  Bead:       0 forces{eV/ang}  cell{angstrom}
       H  2.70383e-01  1.83011e-01 -1.79165e-01
       H  1.31968e-01 -3.72743e-01 -1.02353e-01
       H -6.62537e-02 -4.70401e-02  3.59691e-01
       H  2.78061e-01 -6.36456e-01  6.29414e-01
       H  3.32297e-01  8.74250e-01 -4.77785e-01
       H -2.73189e-01  4.62313e-01 -1.46591e+00
       H  1.68125e-01  6.91156e-01  6.10658e-01
       H  3.11046e-01  1.63773e-01  1.72019e-01
       H  7.88573e-01 -6.94466e-01  5.64598e-01
       O  3.06071e-01 -2.00922e-01 -6.03006e-02
       O -1.23979e+00 -5.91512e-02 -1.62161e-01
       O  1.92610e-01 -1.30998e+00  9.92159e-01
       O -1.19990e+00  9.46258e-01 -8.80860e-01
13
# CELL(abcABC):  529.17722   529.17722   529.17722    90.00000    90.00000    90.00000  Step:         360  Bead:       0 forces{eV/ang}  cell{angstrom}
       H -4.30263e-01 -4.71517e-01  1.40963e-01
       H -2.14801e-01  3.79554e-01  9.30224e-02
       H  1.52904e-01  3.26833e-01 -3.63785e-01
       H  1.41069e+00 -6.22550e-01  9.15623e-01
       H  3.61154e-01  1.78233e-01  1.85556e-02
       H -4.52166e-02  6.10402e-02 -3.98509e-01
       H  1.34920e-01  1.41701e+00  9.91890e-01
       H -4.55685e-02 -1.11134e+00 -3.92647e-01
       H  8.82518e-02  3.30341e-02  3.30372e-02
       O -3.47504e-01 -4.64042e-01  3.40568e-01
       O -1.66476e+00  2.19668e-01 -7.04180e-01
       O  2.38753e-01 -1.37087e+00 -5.74411e-01
       O  3.61442e-01  1.42494e+00 -1.00128e-01
13
# CELL(abcABC):  529.17722   529.17722   529.17722    90.00000    90.00000    90.00000  Step:         380  Bead:       0 forces{eV/ang}  cell{angstrom}
       H  2.59331e-01 -6.97827e-03  2.39941e-01
       H  6.56281e-01 -1.36722e-01 -1.00284e-01
       H -3.87810e-01 -3.40746e-01  1.70897e-01
       H  2.38741e-01 -8.90108e-01  9.26773e-01
       H -1.26117e-01  7.85501e-01 -6.79483e-01
       H  5.72347e-02 -2.06310e-02  4.93820e-01
       H  3.11126e-02  8.05929e-01  5.83485e-01
       H  1.26112e-01 -1.78725e+00 -6.78968e-01
       H -7.95121e-01  3.70846e-01  7.58028e-01
       O -1.25785e+00  3.28749e-01  3.17604e-01
       O  5.70419e-01  1.82893e-02 -5.12714e-01
       O -1.09866e-01 -8.43475e-01 -1.27859e+00
       O  7.37535e-01  1.71659e+00 -2.40511e-01
13
# CELL(abcABC):  529.17722   529.17722   529.17722    90.00000    90.00000    90.00000  Step:         400  Bead:       0 forces{eV/ang}  cell{angstrom}
       H  6.52435e-02  2.05311e-01 -1.86262e-01
       H -4.59984e-01  3.86963e-01  6.45358e-02
       H -1.54325e-01  2.67223e-01 -2.44541e-01
       H  1.13784e+00 -2.69096e-01  1.04300e-01
       H  5.70266e-01 -1.39508e-01  1.46710e-01
       H  1.25625e-01 -1.50493e-01  8.03187e-01
       H  3.23672e-02  1.93191e-01  2.14722e-01
       H  1.27406e-01 -1.69341e+00 -4.25991e-01
       H -7.25767e-01  3.14016e-01  1.62791e+00
       O  9.37765e-01 -6.03315e-01  1.29360e-01
       O -1.79539e+00  3.64965e-01 -3.93785e-02
       O -4.33232e-01  1.66410e-01 -1.10233e+00
       O  5.72184e-01  9.57738e-01 -1.09222e+00
13
# CELL(abcABC):  529.17722   529.17722   529.17722    90.00000    90.00000    90.00000  Step:         420  Bead:       0 forces{eV/ang}  cell{angstrom}
       H  1.48520e-01 -4.44209e-01  3.43232e-01
       H  1.91246e-01 -3.19471e-01 -3.50735e-01
       H  4.86513e-01 -3.69135e-01  1.73754e-01
       H -5.63413e-01 -3.28839e-01  5.30917e-01
       H -6.48877e-01  2.93053e-01  4.65134e-02
       H -1.04608e-01  1.08545e-01  6.42283e-01
       H  1.81699e-01 -7.68386e-01 -6.32086e-01
       H  3.17888e-01 -1.06331e+00 -4.06589e-01
       H -2.62405e-01  2.28730e-02  1.80507e+00
       O  1.28525e-01  6.41677e-01 -1.50937e-01
       O  9.94089e-01  2.13147e-01 -6.83631e-01
       O -4.90204e-01  1.22829e+00 -3.90266e-01
       O -3.78974e-01  7.85769e-01 -9.27530e-01
13
# CELL(abcABC):  529.17722   529.17722   529.17722    90.00000    90.00000    90.00000  Step:         440  Bead:       0 forces{eV/ang}  cell{angstrom}
       H -1.97154e-01  6.11192e-01 -2.96840e-01
       H  8.04613e-02  3.78324e-01  5.55247e-01
       H  3.49477e-01  3.67773e-01 -3.07778e-01
       H -4.69252e-01  1.30001e+00 -5.73481e-01
       H  4.11525e-01 -7.24806e-01  2.42070e-01
       H -2.24314e-01 -2.89723e-01  3.82849e-01
       H -2.11373e-01 -1.27337e+00 -7.86236e-01
       H -2.29836e-01 -2.98771e-01 -2.71927e-01
       H  1.67830e-01  3.45251e-01  1.67131e+00
       O  1.91939e-01 -1.15951e+00  1.64915e-01
       O -4.24990e-01 -4.12817e-01  4.99483e-01
       O  5.42472e-01  1.50396e+00  3.29199e-01
       O  1.32161e-02 -3.47506e-01 -1.60881e+00
13
# CELL(abcABC):  529.17722   529.17722   529.17722    90.00000    90.00000    90.00000  Step:         460  Bead:       0 forces{eV/ang}  cell{angstrom}
       H -2.90090e-02 -1.73060e-02  4.77576e-01
       H -1.23330e-01 -6.72853e-02 -7.59308e-01
       H -5.28998e-01 -1.64550e-01  2.64977e-01
       H -1.31573e+00  1.48857e+00  2.32293e-01
       H -4.10587e-01 -1.22760e-01  4.49031e-01
       H -3.35691e-02 -1.58548e-01  3.82377e-01
       H -3.23729e-01 -9.80273e-01 -1.64608e+00
       H -6.85479e-02  3.08203e-02  2.38295e-01
       H -1.24555e-01 -6.11826e-01  4.99317e-01
       O -2.79644e-01  3.20266e-01 -4.89980e-01
       O  1.81695e+00 -1.10806e+00 -7.93087e-01
       O  9.67416e-01  5.95644e-01  1.34318e+00
       O  4.53335e-01  7.95302e-01 -1.98590e-01
13
# CELL(abcABC):  529.17722   529.17722   529.17722    90.00000    90.00000    90.00000  Step:         480  Bead:       0 forces{eV/ang}  cell{angstrom}
       H  1.98789e-01 -2.96696e-01 -2.99518e-01
       H  3.29901e-01  3.63387e-01  6.77729e-01
       H  4.39069e-01 -6.84622e-02 -3.37555e-01
       H -5.14079e-01  1.80814e+00 -5.14399e-01
       H  2.08427e-01 -2.43635e-01  1.80075e-02
       H  3.08846e-01 -4.22282e-01 -1.11182e-01
       H -4.91877e-02 -9.34152e-01 -1.36009e+00
       H -3.20969e-01  1.79156e-01  1.16905e-01
       H -5.53028e-02  6.08580e-01 -3.33762e-01
       O -1.32128e+00 -2.20189e-02  2.37525e-01
       O  4.39644e-01 -1.54729e+00  4.02881e-01
       O -6.02468e-02  1.17659e+00  1.95765e+00
       O  3.96389e-01 -6.01317e-01 -4.54192e-01
13
# CELL(abcABC):  529.17722   529.17722   529.17722    90.00000    90.00000    90.00000  Step:         500  Bead:       0 forces{eV/ang}  cell{angstrom}
       H -6.35398e-01  6.05741e-01  1.45260e-01
       H -6.28331e-01 -6.99952e-01 -7.51865e-02
       H -4.47810e-01  1.46369e-01  2.95280e-01
       H -9.97322e-01  9.24395e-01  1.64199e-01
       H  9.94413e-02  1.05067e+00 -3.78567e-01
       H -8.77310e-02 -1.02722e-01  6.06255e-01
       H  4.81808e-01 -4.38070e-01 -1.08944e+00
       H  2.71508e-02  2.31387e-01  4.29702e-01
       H -3.50709e-01  3.56878e-01 -1.64995e+00
       O  1.60388e+00 -5.19967e-01 -4.03567e-02
       O  1.06114e+00 -2.04194e+00  7.27138e-02
       O -6.20304e-01  7.39635e-01  1.86420e-01
       O  4.94185e-01 -2.52427e-01  1.33367e+00
13
# CELL(abcABC):  529.17722   529.17722   529.17722    90.00000    90.00000    90.00000  Step:         520  Bead:       0 forces{eV/ang}  cell{angstrom}
       H  8.41801e-01 -3.58613e-01 -5.12072e-03
       H  2.19208e-01  6.28417e-02 -9.41836e-02
       H  3.80342e-02 -1.11454e-01 -2.19402e-01
       H  7.27676e-01  1.19697e-01 -3.07906e-01
       H  3.43838e-01 -5.42423e-01  1.84628e-01
       H  2.53401e-01 -6.21516e-01  1.19115e+00
       H  4.56518e-02 -7.77192e-02  5.66257e-02
       H  1.13996e-01  3.02761e-01  4.17097e-02
       H  3.30967e-01  9.78478e-01 -1.64386e+00
       O -4.96205e-01 -6.50656e-01  6.30644e-01
       O -9.36810e-01  4.58255e-01  1.19593e-01
       O -1.08280e+00  1.48312e+00 -1.45455e+00
       O -3.98761e-01 -1.04278e+00  1.50067e+00
13
# CELL(abcABC):  529.17722   529.17722   529.17722    90.00000    90.00000    90.00000  Step:         540  Bead:       0 forces{eV/ang}  cell{angstrom}
       H -7.44943e-01  4.74841e-01 -1.24194e-01
       H -3.40631e-01 -9.02603e-02  7.34235e-01
       H  1.87035e-01 -6.67877e-02  4.04465e-01
       H -2.81575e-01 -1.08181e+00  5.86407e-01
       H -7.48875e-01  5.41145e-01 -4.83275e-02
       H -2.58538e-01  4.93620e-02  1.00638e+00
       H -1.08394e+00  4.70264e-01  4.75780e-01
       H  1.40976e-01  6.58730e-02  3.79623e-01
       H  5.34562e-01  6.38035e-01 -1.46042e+00
       O  7.64232e-01 -1.98829e-01 -1.49261e-01
       O  1.23292e+00  5.71707e-01 -9.47117e-01
       O  1.38579e+00 -3.76647e-01 -1.64428e+00
       O -7.87006e-01 -9.96897e-01  7.86707e-01
13
# CELL(abcABC):  529.17722   529.17722   529.17722    90.00000    90.00000    90.00000  Step:         560  Bead:       0 forces{eV/ang}  cell{angstrom}
       H  2.37289e-01 -1.65910e-01 -2.08536e-01
       H  4.70892e-01 -2.49920e-01 -1.03459e+00
       H -3.28102e-01 -6.87510e-02 -3.08567e-01
       H  1.22557e+00 -1.53631e+00  4.35280e-01
       H -1.87154e-01 -1.05882e+00  1.03077e-01
       H  3.93309e-01  2.39834e-02 -8.01582e-01
       H -1.24142e+00  4.66712e-03  1.07166e+00
       H  5.48900e-01  3.23288e-01  3.30185e-01
       H  1.19005e-01 -4.52107e-01 -2.12417e-01
       O -7.46921e-01  8.79551e-01  3.74038e-01
       O -7.21718e-01  2.72409e+00 -4.53549e-01
       O  1.28552e+00 -3.52088e-01 -8.09473e-02
       O -1.05518e+00 -7.16772e-02  7.85947e-01
13
# CELL(abcABC):  529.17722   529.17722   529.17722    90.00000    90.00000    90.00000  Step:         580  Bead:       0 forces{eV/ang}  cell{angstrom}
       H  3.51456e-01  6.96302e-02  9.71836e-02
       H -3.26334e-01  3.38280e-01  9.64801e-01
       H -6.53633e-02  3.60261e-01  1.63353e-01
       H  5.01433e-01 -1.98514e+00  3.70452e-01
       H -6.03852e-01 -9.00932e-02 -1.61147e-01
       H -3.51094e-01  2.21845e-01 -1.53854e+00
       H -1.54943e+00  3.93716e-02  4.38540e-01
       H -1.68355e-01 -5.12152e-01  4.96345e-02
       H -2.69421e-01  1.77113e-01  1.09087e+00
       O  7.34772e-01 -2.15840e-01 -9.71571e-01
       O -1.41935e-01  2.22038e+00 -5.61513e-02
       O  1.75625e+00 -5.89572e-01  1.11867e+00
       O  1.31869e-01 -3.40793e-02 -1.56610e+00
13
# CELL(abcABC):  529.17722   529.17722   529.17722    90.00000    90.00000    90.00000  Step:         600  Bead:       0 forces{eV/ang}  cell{angstrom}
       H -3.99915e-01 -2.79065e-01  2.52468e-01
       H -2.36383e-01 -2.51300e-01 -9.78890e-01
       H  5.23199e-01 -4.88134e-01 -3.71960e-01
       H  6.04311e-01 -1.54511e+00  1.28430e-01
       H  4.29218e-01 -1.16051e-01 -1.42647e-01
       H  6.54507e-02  3.35241e-01 -1.88383e+00
       H -6.14106e-01 -9.45163e-02  6.09166e-01
       H  4.59882e-03 -5.01920e-02  2.60369e-01
       H -8.78277e-01 -4.65778e-01  1.83071e+00
       O  2.16963e-01  6.90714e-01 -1.33437e-01
       O -1.28440e+00  1.96834e+00  4.00702e-01
       O  7.89379e-01 -3.29644e-01  1.30657e+00
       O  7.79964e-01  6.25498e-01 -1.27766e+00
13
# CELL(abcABC):  529.17722   529.17722   529.17722    90.00000    90.00000    90.00000  Step:         620  Bead:       0 forces{eV/ang}  cell{angstrom}
       H -4.40743e-01  4.01891e-01 -4.63355e-01
       H  7.89450e-01  3.23316e-01  4.74644e-01
       H -1.27154e-01  2.76450e-01 -6.21515e-02
       H -3.80479e-01 -4.99565e-02 -9.83597e-02
       H  7.67623e-01  7.47138e-01  3.14989e-01
       H -1.22732e-01  2.55120e-01 -7.97276e-01
       H  5.70965e-02  1.79549e-01 -9.65747e-02
       H  7.17423e-01  4.74325e-02  7.65425e-02
       H  1.61193e-01  1.73528e-01  1.40218e+00
       O  7.26038e-01 -1.05160e+00 -9.40933e-02
       O -9.07339e-01 -5.24520e-01  2.27626e-01
       O  1.21561e-01 -3.90026e-01  9.55075e-01
       O -1.36194e+00 -3.88323e-01 -1.83924e+00
13
# CELL(abcABC):  529.17722   529.17722   529.17722    90.00000    90.00000    90.00000  Step:         640  Bead:       0 forces{eV/ang}  cell{angstrom}
       H  1.71396e-01 -2.18524e-01  4.54272e-01
       H -4.36348e-01 -1.22894e+00  3.82431e-01
       H -5.44514e-01  6.58035e-02  4.89197e-01
       H  4.62095e-01  1.19894e+00  5.52661e-01
       H  1.60550e+00  1.72746e-01  3.08995e-01
       H  4.89890e-02  1.72366e-01 -6.40284e-01
       H  1.07203e+00 -3.14410e-01 -3.27796e-01
       H  5.21822e-01  3.71388e-01  4.90448e-01
       H -1.72095e-01 -2.58187e-01  1.48140e-01
       O -1.58633e-01  1.31751e+00 -6.47043e-01
       O -1.41593e+00 -1.50109e+00 -1.44099e+00
       O -8.60454e-01  9.79229e-02  8.17600e-01
       O -2.93851e-01  1.24476e-01 -5.87634e-01
13
# CELL(abcABC):  529.17722   529.17722   529.17722    90.00000    90.00000    90.00000  Step:         660  Bead:       0 forces{eV/ang}  cell{angstrom}
       H  2.93079e-01  5.92514e-02 -3.75486e-03
       H -3.37018e-01  6.65370e-01 -4.12159e-01
       H  4.86744e-01 -1.15884e-01 -6.31981e-01
       H  1.20296e-01  1.70688e+00  1.26050e+00
       H  7.95274e-01  2.00200e-01  3.18993e-01
       H -2.21399e-01  9.48528e-02 -1.77239e-02
       H  7.99100e-01  2.15587e-02 -8.65191e-01
       H  1.95688e-01  3.81867e-01 -1.98061e-01
       H -1.61773e-01  4.65080e-02 -2.36449e-01
       O -1.85609e+00 -9.33436e-01  1.15329e+00
       O -4.14705e-01 -1.94747e+00 -1.91777e+00
       O -3.22112e-01 -5.63927e-01  1.10295e+00
       O  6.22917e-01  3.84230e-01  4.47360e-01
13
# CELL(abcABC):  529.17722   529.17722   529.17722    90.00000    90.00000    90.00000  Step:         680  Bead:       0 forces{eV/ang}  cell{angstrom}
       H -7.36444e-01  4.81402e-01 -1.37250e-01
       H  3.62924e-01 -5.48753e-01  8.69581e-01
       H  1.08231e-01 -2.70942e-01  1.09664e-01
       H  1.20253e+00  1.16028e+00  1.70556e+00
       H -7.95958e-01 -2.56420e-01 -7.05661e-01
       H  4.42827e-01 -3.78726e-01  9.63794e-02
       H  2.82020e-01 -3.40716e-01  2.56790e-01
       H -4.38543e-01 -5.77520e-01 -2.27954e-01
       H -4.67067e-01  8.19850e-01 -9.07311e-01
       O  9.00077e-01 -2.91904e-01 -4.85380e-01
       O -6.69890e-01 -7.31889e-01 -8.42017e-01
       O -8.21783e-01  9.81825e-01 -4.19014e-01
       O  6.31082e-01 -4.64846e-02  6.86610e-01
13
# CELL(abcABC):  529.17722   529.17722   529.17722    90.00000    90.00000    90.00000  Step:         700  Bead:       0 forces{eV/ang}  cell{angstrom}
       H -1.50570e-02 -4.39988e-01 -1.12957e-01
       H -2.46440e-01 -8.12856e-02 -4.72590e-01
       H -4.08690e-02  3.03198e-01  1.19192e-01
       H -2.57984e-01  1.12777e+00  1.22489e+00
       H -1.49969e+00  9.96746e-01 -3.93912e-01
       H -3.12523e-01 -3.04577e-03  5.11006e-01
       H -2.01264e-01  4.56174e-01 -1.08529e-01
       H -4.75329e-01 -4.73028e-01 -5.97400e-01
       H -8.40834e-01  7.79733e-01 -7.62136e-01
       O  4.18017e-01 -3.00794e-01 -1.06481e-01
       O  1.44894e+00 -2.09822e+00 -5.87815e-01
       O  5.16630e-01 -3.52030e-01 -2.48355e-01
       O  1.50640e+00  8.47655e-02  1.53509e+00
13
# CELL(abcABC):  529.17722   529.17722   529.17722    90.00000    90.00000    90.00000  Step:         720  Bead:       0 forces{eV/ang}  cell{angstrom}
       H  6.93923e-01  2.42350e-01  3.41895e-01
       H -4.52290e-01 -4.45846e-01 -2.11283e-01
       H  1.00727e-01 -1.69693e-01  2.06142e-02
       H  3.11373e-01  9.45165e-02  8.45632e-01
       H -1.21931e+00  8.80836e-01 -1.58536e+00
       H  2.06523e-01 -3.81682e-01  3.29096e-02
       H -5.05600e-01  4.14784e-02  6.32437e-01
       H -5.12768e-01 -4.61607e-01 -6.57366e-01
       H -5.74772e-01  5.09765e-01 -3.07193e-01
       O  2.55699e-01  8.68708e-01 -1.11051e+00
       O  2.94057e-01 -8.51522e-01  1.37969e+00
       O  2.19096e-01 -1.48803e-01 -6.22314e-01
       O  1.18334e+00 -1.78502e-01  1.24085e+00
13
# CELL(abcABC):  529.17722   529.17722   529.17722    90.00000    90.00000    90.00000  Step:         740  Bead:       0 forces{eV/ang}  cell{angstrom}
       H -8.01037e-01  2.21201e-01 -1.86996e-02
       H  7.57944e-01  5.30672e-01  1.01006e+00
       H -2.42604e-02 -2.49088e-01  1.95966e-01
       H -3.54855e-01  9.57632e-02 -3.76179e-01
       H -1.99175e+00  1.78500e+00 -7.28508e-01
       H -5.51009e-01 -1.27054e-01 -7.67153e-02
       H -3.63636e-01  1.02821e-01  2.89796e-01
       H -5.06142e-01 -5.09637e-01 -8.01577e-02
       H  1.12989e-01  5.32403e-01 -1.91627e-01
       O  7.84127e-01 -4.25200e-01 -1.00001e+00
       O  1.92726e+00 -1.69039e+00  1.49362e+00
       O  1.27958e+00  1.12881e-01 -1.89975e-01
       O -2.69211e-01 -3.79376e-01 -3.27580e-01
13
# CELL(abcABC):  529.17722   529.17722   529.17722    90.00000    90.00000    90.00000  Step:         760  Bead:       0 forces{eV/ang}  cell{angstrom}
       H  4.67197e-01 -6.73824e-02 -6.31341e-01
       H -5.05111e-01  4.48220e-02 -1.43617e+00
       H  3.46231e-02  2.51286e-01 -3.68728e-01
       H  1.48460e-01 -2.25315e-01 -4.94260e-01
       H -1.54810e+00  9.12890e-01 -6.84940e-01