13
Lattice="529.1772105638412 0.0 0.0 0.0 529.1772105638412 0.0 0.0 0.0 529.1772105638412" Properties=species:S:1:pos:R:3:forces_component_raw:R:3 ipi_comment="Step:           0  Bead:       0 forces_component_raw{ase}  cell{ase}" pbc="T T T"
H        0.00000000       0.00000000       0.00000000      -0.20162775       1.40378887       0.18114873
H        0.00000000       0.00000000       0.00000000      -0.15808738      -0.19474575       0.12167383
H        0.00000000       0.00000000       0.00000000       1.82986933      -0.15555064      -0.09280003
H        0.00000000       0.00000000       0.00000000       0.64219022      -0.43383471       0.22479826
H        0.00000000       0.00000000       0.00000000       0.40515370      -0.02685922       0.02222902
H        0.00000000       0.00000000       0.00000000      -0.01926220       0.35328762      -0.69445985
H        0.00000000       0.00000000       0.00000000       0.10916723      -0.70021558      -0.35853394
H        0.00000000       0.00000000       0.00000000       0.04632337       0.10129453      -0.26239354
H        0.00000000       0.00000000       0.00000000      -0.39288575      -0.11593551      -0.24144880
O        0.00000000       0.00000000       0.00000000      -1.80727462      -1.43817735       0.42842382
O        0.00000000       0.00000000       0.00000000      -0.98746287       0.29772912      -0.05295418
O        0.00000000       0.00000000       0.00000000      -0.27953507       0.34608303       0.86111670
O        0.00000000       0.00000000       0.00000000       0.81343181       0.56313559      -0.13680000
13
Lattice="529.1772105638412 0.0 0.0 0.0 529.1772105638412 0.0 0.0 0.0 529.1772105638412" Properties=species:S:1:pos:R:3:forces_component_raw:R:3 ipi_comment="Step:          20  Bead:       0 forces_component_raw{ase}  cell{ase}" pbc="T T T"
H        0.00000000       0.00000000       0.00000000       0.00539473      -0.47639064      -0.25206890
H        0.00000000       0.00000000       0.00000000      -0.16759800       0.05124753       0.42002660
H        0.00000000       0.00000000       0.00000000      -0.48989489      -0.25970900       0.15853943
H        0.00000000       0.00000000       0.00000000       0.04279336      -0.89613211      -0.02577796
H        0.00000000       0.00000000       0.00000000      -0.64519537      -0.61341763      -0.41254263
H        0.00000000       0.00000000       0.00000000      -0.21922666       0.59362128      -0.70018832
H        0.00000000       0.00000000       0.00000000       0.06681290      -0.04141378      -0.72265943
H        0.00000000       0.00000000       0.00000000       0.35163755      -0.29757489       1.12742023
H        0.00000000       0.00000000       0.00000000      -0.13685613      -0.10235786       0.03730998
O        0.00000000       0.00000000       0.00000000       0.39947635      -0.38692697       0.09728984
O        0.00000000       0.00000000       0.00000000       0.80930344       1.54861676       0.33016203
O        0.00000000       0.00000000       0.00000000      -0.06101600       0.25021063       1.60185217
O        0.00000000       0.00000000       0.00000000       0.04436872       0.63022666      -1.65936304
13
Lattice="529.1772105638412 0.0 0.0 0.0 529.1772105638412 0.0 0.0 0.0 529.1772105638412" Properties=species:S:1:pos:R:3:forces_component_raw:R:3 ipi_comment="Step:          40  Bead:       0 forces_component_raw{ase}  cell{ase}" pbc="T T T"
H        0.00000000       0.00000000       0.00000000      -0.16136967       0.65432315       0.16123979
H        0.00000000       0.00000000       0.00000000       0.01216491      -0.10329506      -0.41972235
H        0.00000000       0.00000000       0.00000000       0.71543386       0.10069401       0.13722065
H        0.00000000       0.00000000       0.00000000       0.57696279       0.35379779       0.09092477
H        0.00000000       0.00000000       0.00000000      -0.30211346      -1.63829827      -0.37183240
H        0.00000000       0.00000000       0.00000000      -0.05150794       0.07670136       0.11289811
H        0.00000000       0.00000000       0.00000000       0.15389083      -0.19636516      -0.39398623
H        0.00000000       0.00000000       0.00000000       0.46866421      -0.39340587       0.97155327
H        0.00000000       0.00000000       0.00000000      -0.09164203      -0.02257470      -0.11014411
O        0.00000000       0.00000000       0.00000000      -1.57856354      -1.60691252       0.69068582
O        0.00000000       0.00000000       0.00000000       0.54943273       1.01132931       0.23036925
O        0.00000000       0.00000000       0.00000000      -0.25778896       0.93201107       0.13257951
O        0.00000000       0.00000000       0.00000000      -0.03356373       0.83199491      -1.23178607
13
Lattice="529.1772105638412 0.0 0.0 0.0 529.1772105638412 0.0 0.0 0.0 529.1772105638412" Properties=species:S:1:pos:R:3:forces_component_raw:R:3 ipi_comment="Step:          60  Bead:       0 forces_component_raw{ase}  cell{ase}" pbc="T T T"
H        0.00000000       0.00000000       0.00000000      -0.02807890      -0.31206835       0.30419869
H        0.00000000       0.00000000       0.00000000       0.16733292      -0.34167989       0.53382863
H        0.00000000       0.00000000       0.00000000      -0.46013927       0.06924987      -0.01129412
H        0.00000000       0.00000000       0.00000000      -0.71508005       0.22189279       0.08669794
H        0.00000000       0.00000000       0.00000000      -1.28466574      -0.43576561       0.06127017
H        0.00000000       0.00000000       0.00000000       0.24772952      -0.35019234       0.33680897
H        0.00000000       0.00000000       0.00000000      -0.19093028       0.00930080       0.50191575
H        0.00000000       0.00000000       0.00000000       0.35768558      -0.27804756       0.46765706
H        0.00000000       0.00000000       0.00000000      -0.24152222      -0.15354735       0.04226820
O        0.00000000       0.00000000       0.00000000       0.16551822       1.60934256      -1.45526422
O        0.00000000       0.00000000       0.00000000       3.11572972       0.00383492      -0.18324653
O        0.00000000       0.00000000       0.00000000      -0.09503745       0.17959593      -1.06521401
O        0.00000000       0.00000000       0.00000000      -1.03854204      -0.22191578       0.38037348
13
Lattice="529.1772105638412 0.0 0.0 0.0 529.1772105638412 0.0 0.0 0.0 529.1772105638412" Properties=species:S:1:pos:R:3:forces_component_raw:R:3 ipi_comment="Step:          80  Bead:       0 forces_component_raw{ase}  cell{ase}" pbc="T T T"
H        0.00000000       0.00000000       0.00000000       0.40020617      -0.08105394      -0.08670370
H        0.00000000       0.00000000       0.00000000      -0.29564127       0.77269097      -0.20731704
H        0.00000000       0.00000000       0.00000000       0.02013596       0.26377594       0.06533337
H        0.00000000       0.00000000       0.00000000       0.14124160       1.46648120       0.31170366
H        0.00000000       0.00000000       0.00000000       0.15734380      -0.66031068      -0.21433876
H        0.00000000       0.00000000       0.00000000       0.02390840      -0.10778662       0.42476781
H        0.00000000       0.00000000       0.00000000      -0.73735420       0.87765576       0.68089955
H        0.00000000       0.00000000       0.00000000      -0.90192223       0.09915730      -0.05530023
H        0.00000000       0.00000000       0.00000000       0.13075309      -0.19323143       0.23947970
O        0.00000000       0.00000000       0.00000000      -0.06219222       1.00379274      -1.56494960
O        0.00000000       0.00000000       0.00000000       0.84799488      -1.10951463      -0.19993517
O        0.00000000       0.00000000       0.00000000       0.30716237      -1.01770131      -0.93313424
O        0.00000000       0.00000000       0.00000000      -0.03163634      -1.31395529       1.53949465
13
Lattice="529.1772105638412 0.0 0.0 0.0 529.1772105638412 0.0 0.0 0.0 529.1772105638412" Properties=species:S:1:pos:R:3:forces_component_raw:R:3 ipi_comment="Step:         100  Bead:       0 forces_component_raw{ase}  cell{ase}" pbc="T T T"
H        0.00000000       0.00000000       0.00000000      -0.06257223       0.30844000       0.47010831
H        0.00000000       0.00000000       0.00000000       0.54502960      -0.24400872       0.45921960
H        0.00000000       0.00000000       0.00000000       0.08035785      -0.39965381       0.68579517
H        0.00000000       0.00000000       0.00000000      -0.89185073       0.66327860       1.14179616
H        0.00000000       0.00000000       0.00000000       0.02405674       0.41146781       0.37003528
H        0.00000000       0.00000000       0.00000000       0.22847688       0.11713197       0.39898786
H        0.00000000       0.00000000       0.00000000      -0.94482543       0.73693084       1.03686048
H        0.00000000       0.00000000       0.00000000      -0.70149509       1.21241031      -0.61081721
H        0.00000000       0.00000000       0.00000000      -0.11785166       0.27497771       0.04190620
O        0.00000000       0.00000000       0.00000000      -0.43688877      -0.65377580      -1.10499251
O        0.00000000       0.00000000       0.00000000       1.53834952      -1.02116890      -1.81273568
O        0.00000000       0.00000000       0.00000000       0.40459226       0.33583390      -1.84474060
O        0.00000000       0.00000000       0.00000000       0.33462107      -1.74186392       0.76857694
13
Lattice="529.1772105638412 0.0 0.0 0.0 529.1772105638412 0.0 0.0 0.0 529.1772105638412" Properties=species:S:1:pos:R:3:forces_component_raw:R:3 ipi_comment="Step:         120  Bead:       0 forces_component_raw{ase}  cell{ase}" pbc="T T T"
H        0.00000000       0.00000000       0.00000000       0.26398489      -0.51567247      -0.11647758
H        0.00000000       0.00000000       0.00000000      -0.77085266      -0.23150488      -0.35528351
H        0.00000000       0.00000000       0.00000000       0.30104383       0.38769790      -0.47099519
H        0.00000000       0.00000000       0.00000000      -0.59487632       1.33968050       0.51454486
H        0.00000000       0.00000000       0.00000000       0.70752499       0.46137999      -0.50055925
H        0.00000000       0.00000000       0.00000000      -0.10327459       0.03743031       0.19588560
H        0.00000000       0.00000000       0.00000000      -0.72710357       0.65870769       0.57096118
H        0.00000000       0.00000000       0.00000000      -1.54274006       0.50770690      -0.40188776
H        0.00000000       0.00000000       0.00000000       0.71404685       0.01803987       0.17153200
O        0.00000000       0.00000000       0.00000000      -0.08104563      -1.85291092       1.32840881
O        0.00000000       0.00000000       0.00000000      -0.18720176      -1.86421689       0.01481976
O        0.00000000       0.00000000       0.00000000       0.40591182       1.22773565      -0.76020476
O        0.00000000       0.00000000       0.00000000       1.61458222      -0.17407364      -0.19074416
13
Lattice="529.1772105638412 0.0 0.0 0.0 529.1772105638412 0.0 0.0 0.0 529.1772105638412" Properties=species:S:1:pos:R:3:forces_component_raw:R:3 ipi_comment="Step:         140  Bead:       0 forces_component_raw{ase}  cell{ase}" pbc="T T T"
H        0.00000000       0.00000000       0.00000000      -0.11695751      -0.00202028       0.04207214
H        0.00000000       0.00000000       0.00000000       0.67415543       0.06853988       0.49909709
H        0.00000000       0.00000000       0.00000000       0.02471625      -0.13459284       0.54815597
H        0.00000000       0.00000000       0.00000000      -0.55015252       0.10936135       0.34507648
H        0.00000000       0.00000000       0.00000000       0.71400385       1.73921959      -0.56195139
H        0.00000000       0.00000000       0.00000000       0.07781786      -0.12921041       0.01215482
H        0.00000000       0.00000000       0.00000000      -0.12683995       0.05726028       0.24477203
H        0.00000000       0.00000000       0.00000000       0.37947013       0.64126902      -0.26103600
H        0.00000000       0.00000000       0.00000000       0.24808765       0.61371743       0.18599299
O        0.00000000       0.00000000       0.00000000      -0.48522952      -0.03060818      -0.27282386
O        0.00000000       0.00000000       0.00000000       0.12619301      -1.73936273      -0.08629780
O        0.00000000       0.00000000       0.00000000       0.08728121       0.05076705      -0.27965186
O        0.00000000       0.00000000       0.00000000      -1.05254589      -1.24434015      -0.41556061
13
Lattice="529.1772105638412 0.0 0.0 0.0 529.1772105638412 0.0 0.0 0.0 529.1772105638412" Properties=species:S:1:pos:R:3:forces_component_raw:R:3 ipi_comment="Step:         160  Bead:       0 forces_component_raw{ase}  cell{ase}" pbc="T T T"
H        0.00000000       0.00000000       0.00000000       0.18406149       0.59424315       0.09634862
H        0.00000000       0.00000000       0.00000000      -0.77619856       0.55652090      -0.50111251
H        0.00000000       0.00000000       0.00000000       0.10079715       0.22284390       0.12745481
H        0.00000000       0.00000000       0.00000000       0.45539388      -0.03897347      -0.18903284
H        0.00000000       0.00000000       0.00000000       1.30127000       1.42517289      -0.71946695
H        0.00000000       0.00000000       0.00000000       0.11131229      -0.01481943       0.09966454
H        0.00000000       0.00000000       0.00000000       0.22003526       0.10727580      -0.25024958
H        0.00000000       0.00000000       0.00000000      -0.19076738      -0.57843001       0.53747555
H        0.00000000       0.00000000       0.00000000      -0.19797372      -0.26072483      -0.10787065
O        0.00000000       0.00000000       0.00000000      -0.34615267      -0.60631899       0.37293848
O        0.00000000       0.00000000       0.00000000      -1.49254368      -1.45057730       0.76620623
O        0.00000000       0.00000000       0.00000000      -0.39997194      -0.58290592       0.13493282
O        0.00000000       0.00000000       0.00000000       1.03073787       0.62669330      -0.36728852
13
Lattice="529.1772105638412 0.0 0.0 0.0 529.1772105638412 0.0 0.0 0.0 529.1772105638412" Properties=species:S:1:pos:R:3:forces_component_raw:R:3 ipi_comment="Step:         180  Bead:       0 forces_component_raw{ase}  cell{ase}" pbc="T T T"
H        0.00000000       0.00000000       0.00000000       0.12257472      -0.23996618      -0.16805654
H        0.00000000       0.00000000       0.00000000       0.03590364      -0.91604801       1.02030304
H        0.00000000       0.00000000       0.00000000      -0.11645163      -0.15187569      -0.02279731
H        0.00000000       0.00000000       0.00000000       0.78796878      -2.08242149      -0.11871325
H        0.00000000       0.00000000       0.00000000       0.52242996       1.28056132      -0.24877608
H        0.00000000       0.00000000       0.00000000      -0.30137904       0.33108171      -0.66133310
H        0.00000000       0.00000000       0.00000000       0.50499486      -0.07069147      -0.83629287
H        0.00000000       0.00000000       0.00000000       1.06533678      -0.78889050       0.94478604
H        0.00000000       0.00000000       0.00000000      -0.70560775       0.14237067      -0.27715981
O        0.00000000       0.00000000       0.00000000       0.34599781       2.59594815      -1.67893722
O        0.00000000       0.00000000       0.00000000      -1.28320367       0.68917389       0.45653124
O        0.00000000       0.00000000       0.00000000       0.02738036      -1.16857122       1.58913970
O        0.00000000       0.00000000       0.00000000      -1.00594483       0.37932882       0.00130617
13
Lattice="529.1772105638412 0.0 0.0 0.0 529.1772105638412 0.0 0.0 0.0 529.1772105638412" Properties=species:S:1:pos:R:3:forces_component_raw:R:3 ipi_comment="Step:         200  Bead:       0 forces_component_raw{ase}  cell{ase}" pbc="T T T"
H        0.00000000       0.00000000       0.00000000      -0.11462871      -0.16185492       0.50541014
H        0.00000000       0.00000000       0.00000000      -0.11459437       0.77913696      -0.47665129
H        0.00000000       0.00000000       0.00000000       0.60513174       0.32197731      -0.25132355
H        0.00000000       0.00000000       0.00000000       1.37830390      -1.59607589      -0.04520556
H        0.00000000       0.00000000       0.00000000       0.10397156      -0.24739605       0.00191010
H        0.00000000       0.00000000       0.00000000       0.10328262      -0.09107911      -0.04719716
H        0.00000000       0.00000000       0.00000000       0.22168283      -0.15074242      -0.28068808
H        0.00000000       0.00000000       0.00000000       0.22334421      -1.22542172       1.41966590
H        0.00000000       0.00000000       0.00000000      -1.30348279      -0.58086603       0.17145716
O        0.00000000       0.00000000       0.00000000      -0.34096941       0.45137426      -0.51681463
O        0.00000000       0.00000000       0.00000000      -1.34278933       1.59683157       0.08996246
O        0.00000000       0.00000000       0.00000000      -0.11034125      -0.21798752       0.18528712
O        0.00000000       0.00000000       0.00000000       0.69108900       1.12210355      -0.75581261
13
Lattice="529.1772105638412 0.0 0.0 0.0 529.1772105638412 0.0 0.0 0.0 529.1772105638412" Properties=species:S:1:pos:R:3:forces_component_raw:R:3 ipi_comment="Step:         220  Bead:       0 forces_component_raw{ase}  cell{ase}" pbc="T T T"
H        0.00000000       0.00000000       0.00000000       0.49812816       0.31451798      -0.47742668
H        0.00000000       0.00000000       0.00000000       0.55358313      -0.15557725      -0.24481862
H        0.00000000       0.00000000       0.00000000      -0.14893828      -0.42741693       0.50222815
H        0.00000000       0.00000000       0.00000000      -0.13751731      -0.29011779       0.03906246
H        0.00000000       0.00000000       0.00000000      -0.75143830      -0.80534823       0.14874076
H        0.00000000       0.00000000       0.00000000       0.16556444      -0.42919147       0.34183809
H        0.00000000       0.00000000       0.00000000      -0.09949818       0.15624365       0.13018663
H        0.00000000       0.00000000       0.00000000       1.13560958      -0.62680317       0.76847475
H        0.00000000       0.00000000       0.00000000      -1.62577817       0.16876879      -0.63374069
O        0.00000000       0.00000000       0.00000000      -0.53747498      -0.30026941       0.20935735
O        0.00000000       0.00000000       0.00000000       0.86547328       1.37740088      -0.36734282
O        0.00000000       0.00000000       0.00000000      -0.30745667       0.52893048      -0.29853610
O        0.00000000       0.00000000       0.00000000       0.38974331       0.48886247      -0.11802326
13
Lattice="529.1772105638412 0.0 0.0 0.0 529.1772105638412 0.0 0.0 0.0 529.1772105638412" Properties=species:S:1:pos:R:3:forces_component_raw:R:3 ipi_comment="Step:         240  Bead:       0 forces_component_raw{ase}  cell{ase}" pbc="T T T"
H        0.00000000       0.00000000       0.00000000      -0.07731421      -0.65357326       0.64919473
H        0.00000000       0.00000000       0.00000000      -0.56633893       0.75742148      -0.06250846
H        0.00000000       0.00000000       0.00000000      -0.09210055       0.35343708      -0.67599902
H        0.00000000       0.00000000       0.00000000      -0.36563380       1.06985063      -0.42770748
H        0.00000000       0.00000000       0.00000000      -0.53551581      -0.94169160       0.39455600
H        0.00000000       0.00000000       0.00000000      -0.13463681       0.16490744       0.55664818
H        0.00000000       0.00000000       0.00000000      -0.23755196       0.71180417       0.60404177
H        0.00000000       0.00000000       0.00000000      -0.23282506      -0.31821270       0.14735689
H        0.00000000       0.00000000       0.00000000      -0.00308985      -0.32467475       0.21673128
O        0.00000000       0.00000000       0.00000000       1.02086405      -2.08832238       0.89030287
O        0.00000000       0.00000000       0.00000000       0.89536837      -0.30860655       0.25691973
O        0.00000000       0.00000000       0.00000000      -0.39916037       0.80717785      -1.60749016
O        0.00000000       0.00000000       0.00000000       0.72793493       0.77048258      -0.94204634
13
Lattice="529.1772105638412 0.0 0.0 0.0 529.1772105638412 0.0 0.0 0.0 529.1772105638412" Properties=species:S:1:pos:R:3:forces_component_raw:R:3 ipi_comment="Step:         260  Bead:       0 forces_component_raw{ase}  cell{ase}" pbc="T T T"
H        0.00000000       0.00000000       0.00000000       0.06280600       0.32883664      -0.44412447
H        0.00000000       0.00000000       0.00000000       0.66037368      -0.47489536      -0.02476098
H        0.00000000       0.00000000       0.00000000       0.36533007      -0.15839183       0.34849889
H        0.00000000       0.00000000       0.00000000      -1.36069293       1.26559397      -0.78826908
H        0.00000000       0.00000000       0.00000000      -0.58251595      -0.69338622       0.30485571
H        0.00000000       0.00000000       0.00000000       0.02996108      -0.34425380       0.46932495
H        0.00000000       0.00000000       0.00000000      -0.15147683       0.48671358       0.43460140
H        0.00000000       0.00000000       0.00000000      -0.38282149       0.65771194      -0.56318139
H        0.00000000       0.00000000       0.00000000       1.11406897       0.13245145       0.05710959
O        0.00000000       0.00000000       0.00000000      -1.24960841      -1.12552526       0.73892344
O        0.00000000       0.00000000       0.00000000       2.37814131      -0.56020120       0.31306014
O        0.00000000       0.00000000       0.00000000      -0.33898214       0.73592785      -0.77176285
O        0.00000000       0.00000000       0.00000000      -0.54458336      -0.25058176      -0.07427537
13
Lattice="529.1772105638412 0.0 0.0 0.0 529.1772105638412 0.0 0.0 0.0 529.1772105638412" Properties=species:S:1:pos:R:3:forces_component_raw:R:3 ipi_comment="Step:         280  Bead:       0 forces_component_raw{ase}  cell{ase}" pbc="T T T"
H        0.00000000       0.00000000       0.00000000      -0.16942823      -0.23086208       0.57464102
H        0.00000000       0.00000000       0.00000000      -0.54049525       0.31052340       0.20663021
H        0.00000000       0.00000000       0.00000000      -0.09148251       0.03981359      -0.18628237
H        0.00000000       0.00000000       0.00000000      -1.02510077       1.92640089      -1.60707425
H        0.00000000       0.00000000       0.00000000       0.13053457      -0.79267356       0.53588620
H        0.00000000       0.00000000       0.00000000      -0.19915055       0.32235704      -0.24919642
H        0.00000000       0.00000000       0.00000000       0.09100457      -0.15392339      -0.10264272
H        0.00000000       0.00000000       0.00000000      -0.97343292       0.89359464      -0.11412389
H        0.00000000       0.00000000       0.00000000       0.64491588       0.06025575      -0.08771109
O        0.00000000       0.00000000       0.00000000       0.47133126       0.39249663      -0.69359287
O        0.00000000       0.00000000       0.00000000       1.09023504      -1.22020088       1.19454057
O        0.00000000       0.00000000       0.00000000       0.12539563      -0.01845908      -0.02298152
O        0.00000000       0.00000000       0.00000000       0.44567330      -1.52932295       0.55190714
13
Lattice="529.1772105638412 0.0 0.0 0.0 529.1772105638412 0.0 0.0 0.0 529.1772105638412" Properties=species:S:1:pos:R:3:forces_component_raw:R:3 ipi_comment="Step:         300  Bead:       0 forces_component_raw{ase}  cell{ase}" pbc="T T T"
H        0.00000000       0.00000000       0.00000000       0.20976654      -0.04627495      -0.42778383
H        0.00000000       0.00000000       0.00000000       0.67152538      -0.37010001       0.10502523
H        0.00000000       0.00000000       0.00000000       0.08328210       0.09848163       0.15073036
H        0.00000000       0.00000000       0.00000000      -1.50524553       0.81927361      -1.03763048
H        0.00000000       0.00000000       0.00000000      -0.56078986      -0.29700138       0.02282608
H        0.00000000       0.00000000       0.00000000      -0.10709706       0.67140369      -1.58259105
H        0.00000000       0.00000000       0.00000000      -0.30874833      -0.16300096      -0.26255433
H        0.00000000       0.00000000       0.00000000      -0.49582138       1.68728004      -0.09774179
H        0.00000000       0.00000000       0.00000000       0.90686433      -0.10794678       0.19686787
O        0.00000000       0.00000000       0.00000000      -0.88504061       1.24326491      -0.51425692
O        0.00000000       0.00000000       0.00000000       2.30960346      -0.64054024       0.90554410
O        0.00000000       0.00000000       0.00000000       0.81931579      -0.78729118       2.09986385
O        0.00000000       0.00000000       0.00000000      -1.13761483      -2.10754839       0.44170091
13
Lattice="529.1772105638412 0.0 0.0 0.0 529.1772105638412 0.0 0.0 0.0 529.1772105638412" Properties=species:S:1:pos:R:3:forces_component_raw:R:3 ipi_comment="Step:         320  Bead:       0 forces_component_raw{ase}  cell{ase}" pbc="T T T"
H        0.00000000       0.00000000       0.00000000      -0.27891941      -0.01571656       0.17903831
H        0.00000000       0.00000000       0.00000000      -0.40804133       0.31905638       0.01048872
H        0.00000000       0.00000000       0.00000000       0.38459055      -0.05989313      -0.33211233
H        0.00000000       0.00000000       0.00000000      -0.19474500       0.67906840      -0.66236854
H        0.00000000       0.00000000       0.00000000       0.86368593       0.63729649      -0.20977661
H        0.00000000       0.00000000       0.00000000      -0.37214303       1.24028106      -2.26534746
H        0.00000000       0.00000000       0.00000000      -0.27421080       0.08432229      -0.04417300
H        0.00000000       0.00000000       0.00000000      -0.32235697       1.42320480       0.45383787
H        0.00000000       0.00000000       0.00000000       0.80055521      -0.50674243       0.23806156
O        0.00000000       0.00000000       0.00000000      -0.03766274       0.34371612      -0.14464770
O        0.00000000       0.00000000       0.00000000      -0.59810981      -1.23229368       0.96675500
O        0.00000000       0.00000000       0.00000000       1.04723928      -1.47452605       2.26660177
O        0.00000000       0.00000000       0.00000000      -0.60988187      -1.43777369      -0.45635759
13
Lattice="529.1772105638412 0.0 0.0 0.0 529.1772105638412 0.0 0.0 0.0 529.1772105638412" Properties=species:S:1:pos:R:3:forces_component_raw:R:3 ipi_comment="Step:         340  Bead:       0 forces_component_raw{ase}  cell{ase}" pbc="T T T"
H        0.00000000       0.00000000       0.00000000       0.19383567       0.09051267      -0.27532188
H        0.00000000       0.00000000       0.00000000       0.24863626      -0.46325534       0.08511894
H        0.00000000       0.00000000       0.00000000      -0.00476084      -0.08876863       0.24832395
H        0.00000000       0.00000000       0.00000000       0.33792838      -0.63201841       0.60422077
H        0.00000000       0.00000000       0.00000000       0.43775862       0.85938155      -0.49591882
H        0.00000000       0.00000000       0.00000000      -0.32574542       0.54930236      -1.48514815
H        0.00000000       0.00000000       0.00000000       0.16789402       0.76833502       0.64035962
H        0.00000000       0.00000000       0.00000000       0.23737387       0.08223530       0.18910452
H        0.00000000       0.00000000       0.00000000       0.62677851      -0.70961413       0.57737777
O        0.00000000       0.00000000       0.00000000       0.26228547      -0.11126988       0.00993458
O        0.00000000       0.00000000       0.00000000      -1.03846266      -0.07273748      -0.19860115
O        0.00000000       0.00000000       0.00000000       0.04961040      -1.14994480       0.94798426
O        0.00000000       0.00000000       0.00000000      -1.19313229       0.87784177      -0.84743439
13
Lattice="529.1772105638412 0.0 0.0 0.0 529.1772105638412 0.0 0.0 0.0 529.1772105638412" Properties=species:S:1:pos:R:3:forces_component_raw:R:3 ipi_comment="Step:         360  Bead:       0 forces_component_raw{ase}  cell{ase}" pbc="T T T"
H        0.00000000       0.00000000       0.00000000      -0.42116413      -0.44739167       0.05300818
H        0.00000000       0.00000000       0.00000000      -0.15605611       0.33763532       0.07316598
H        0.00000000       0.00000000       0.00000000       0.23391899       0.22860148      -0.54625702
H        0.00000000       0.00000000       0.00000000       1.52541503      -0.65898553       0.93721414
H        0.00000000       0.00000000       0.00000000       0.48278419       0.19708702      -0.03483988
H        0.00000000       0.00000000       0.00000000      -0.09992937       0.12701191      -0.41836772
H        0.00000000       0.00000000       0.00000000       0.09375395       1.49100517       0.98437546