13
# CELL(abcABC):  529.17722   529.17722   529.17722    90.00000    90.00000    90.00000  Step:           0  Bead:       0 forces{eV/ang}  cell{angstrom}
       H -5.18513e-01  1.94936e+00  2.19885e-01
       H -1.34922e-02  5.11871e-02  2.33860e-01
       H  2.45439e+00 -2.67298e-01  1.15915e-01
       H  8.00197e-01 -3.79025e-01  4.18861e-01
       H  8.16540e-01 -7.48388e-02  2.57439e-01
       H -4.89758e-02  6.35998e-01 -8.21058e-01
       H  1.25720e-01 -5.80355e-01 -3.65126e-01
       H -4.27139e-02 -9.14171e-03 -6.90675e-02
       H -5.21139e-01 -2.34200e-01 -7.82003e-02
       O -2.10780e+00 -1.93252e+00 -4.76000e-01
       O -1.18949e+00  2.33861e-01 -4.67243e-01
       O -3.85061e-01  2.47699e-01  1.00277e+00
       O  6.30340e-01  3.59277e-01  2.79670e-02
13
# CELL(abcABC):  529.17722   529.17722   529.17722    90.00000    90.00000    90.00000  Step:          20  Bead:       0 forces{eV/ang}  cell{angstrom}
       H -2.42531e-01 -4.18086e+00 -4.44660e-02
       H -8.00385e-04  2.34250e-01  2.71390e-01
       H -5.93562e+00 -4.39448e-01  8.37483e-01
       H -5.18802e-01 -1.23961e+00 -2.20587e-01
       H -1.32449e+00 -7.70692e-02 -4.71502e-01
       H -1.38403e-01  1.89332e-01 -7.99829e-01
       H  1.73852e-01 -3.30802e-01 -7.45931e-01
       H  7.28271e-01 -2.55049e-01  1.58147e+00
       H -3.16113e-01 -5.55363e-02 -3.29414e-01
       O -4.63547e-01 -1.18468e+00  7.94807e-01
       O  7.22168e+00  1.47849e+00  4.82347e-02
       O  1.46373e-01  4.61222e+00  1.64294e+00
       O  6.70133e-01  1.24877e+00 -2.56460e+00
13
# CELL(abcABC):  529.17722   529.17722   529.17722    90.00000    90.00000    90.00000  Step:          40  Bead:       0 forces{eV/ang}  cell{angstrom}
       H -3.16033e-01  1.37319e+00  1.09867e-01
       H -6.86119e-01 -8.82625e-01  3.74276e-01
       H  1.31485e+00 -3.99282e-01 -2.21688e-01
       H  8.32593e-01 -1.73700e-01  9.47546e-02
       H -3.06663e-01 -1.27191e+00 -2.73779e-01
       H  3.26958e-02 -2.98458e-01  8.08750e-02
       H  1.47919e-01 -5.77157e-01 -2.14317e-01
       H  4.50148e-01 -4.03632e-01  1.15743e+00
       H -3.46772e-01 -1.48193e-01 -1.37629e-02
       O -4.92070e-01 -1.39850e-02  2.94990e-01
       O -8.00764e-01  1.37045e+00  3.17267e-01
       O -3.03462e-01  7.92316e-02  4.43731e-02
       O  4.73675e-01  1.34607e+00 -1.75029e+00
13
# CELL(abcABC):  529.17722   529.17722   529.17722    90.00000    90.00000    90.00000  Step:          60  Bead:       0 forces{eV/ang}  cell{angstrom}
       H  2.51235e-02  9.71463e-01  8.69906e-02
       H -8.58812e-02 -1.18118e+00  8.35351e-01
       H  3.07091e+00 -6.25127e-03  1.99794e-01
       H -2.53725e-01 -1.07048e-01  5.37599e-03
       H -6.30181e-01  2.88610e-01  7.18385e-02
       H -1.63707e-01  2.07951e-01  9.09411e-01
       H -1.43777e-01  4.50012e-01 -3.14985e-01
       H -4.56367e-01 -4.35090e-01  3.18284e-01
       H -9.47109e-02 -5.06574e-01  6.45888e-01
       O -2.71243e+00  6.24845e-01 -8.74640e-01
       O  1.01539e+00 -3.61084e-01 -1.37253e-01
       O  1.76781e-01 -1.20900e+00 -7.43374e-01
       O  2.52576e-01  1.26334e+00 -1.00268e+00
13
# CELL(abcABC):  529.17722   529.17722   529.17722    90.00000    90.00000    90.00000  Step:          80  Bead:       0 forces{eV/ang}  cell{angstrom}
       H -1.16888e-01 -9.84212e-01 -1.94250e-01
       H  1.82124e-01  1.52008e+00 -1.45446e+00
       H -3.64111e+00  2.03682e-01  2.73634e-02
       H  2.76674e-02  9.56855e-01  1.32783e-01
       H  3.52776e-01 -1.58933e-01 -2.18734e-01
       H  4.05090e-01 -9.92044e-01  2.57883e-01
       H -2.13068e-01 -1.64235e-01  9.42009e-01
       H -4.45622e-01  9.69577e-01 -1.14260e+00
       H  4.24002e-01  5.82948e-01 -7.43233e-01
       O  1.69198e-03  7.73166e-01  5.81622e-02
       O  3.27640e+00 -1.11319e+00  1.79635e-01
       O -5.54002e-02  6.14081e-01 -9.54720e-01
       O -1.97664e-01 -2.20777e+00  3.11016e+00
13
# CELL(abcABC):  529.17722   529.17722   529.17722    90.00000    90.00000    90.00000  Step:         100  Bead:       0 forces{eV/ang}  cell{angstrom}
       H  9.52565e-01  1.83255e-01  5.07859e-01
       H  1.28659e+00  4.67914e-01 -1.62782e-01
       H -5.03487e-01  3.05789e-01 -4.25170e-01
       H -1.49149e+00 -5.79087e-03  1.29106e+00
       H -5.92451e-01  1.44626e+00  4.15422e-01
       H  3.98183e-01  4.13045e-02  6.87354e-01
       H -5.80205e-01  3.23593e-01  8.20843e-01
       H -1.34870e+00  1.23799e+00 -1.41505e+00
       H  5.16840e-01  3.79272e-01  3.51164e-01
       O -2.36982e-01  1.07415e+00 -6.91320e-01
       O  2.11132e+00 -1.62136e+00 -1.35764e+00
       O -1.70074e-01 -1.51405e+00 -1.93271e+00
       O -3.42111e-01 -2.31832e+00  1.91097e+00
13
# CELL(abcABC):  529.17722   529.17722   529.17722    90.00000    90.00000    90.00000  Step:         120  Bead:       0 forces{eV/ang}  cell{angstrom}
       H -2.12090e-01 -1.42655e+00 -3.13534e-01
       H -1.21505e+00 -1.18188e+00  2.78959e-01
       H  6.77177e-01 -5.03291e-02  1.72990e-01
       H  1.28611e-01  1.98587e+00  1.54843e-01
       H  1.62146e+00  2.50800e-01 -9.37836e-01
       H  1.40968e-01 -2.86264e-01  2.05164e-01
       H -3.58456e-01  5.38732e-01  4.72832e-01
       H -1.89516e+00  1.20562e+00 -7.10316e-01
       H  9.15201e-01  6.61320e-01  2.76810e-01
       O  4.53005e-01 -7.09996e-01  8.20478e-01
       O -2.06239e+00 -2.25997e+00  2.92246e-01
       O -2.29020e-01  2.18411e+00 -3.43139e-01
       O  2.03575e+00 -9.11454e-01 -3.69500e-01
13
# CELL(abcABC):  529.17722   529.17722   529.17722    90.00000    90.00000    90.00000  Step:         140  Bead:       0 forces{eV/ang}  cell{angstrom}
       H -4.21240e-01  1.48903e+00 -5.26005e-02
       H  3.42309e-01 -1.96802e-01  8.33514e-01
       H  3.73076e-01  4.06082e-01  1.83883e-01
       H -1.13688e+00 -3.48451e-01  7.77221e-01
       H  3.27504e-01  2.26815e+00 -4.34485e-01
       H  3.02920e-02  1.66371e-02  1.65395e-01
       H -5.14805e-02  2.37903e-01 -3.46768e-02
       H -8.29785e-01  8.71116e-01 -5.91216e-01
       H  7.16265e-01  1.49631e-01  1.12701e+00
       O -5.64389e-01 -1.58078e+00  2.02698e-01
       O  1.14502e+00 -2.16359e+00 -3.82224e-01
       O  5.67199e-02 -3.82970e-01  3.78097e-03
       O  1.25899e-02 -7.65955e-01 -1.79830e+00
13
# CELL(abcABC):  529.17722   529.17722   529.17722    90.00000    90.00000    90.00000  Step:         160  Bead:       0 forces{eV/ang}  cell{angstrom}
       H  1.57592e-01  1.61314e-01  4.46750e-01
       H -5.86051e-01  4.87154e-01 -7.47711e-01
       H  1.99056e-01 -6.67175e-01 -2.41459e-01
       H  9.63197e-01  4.00791e-01 -3.19905e-01
       H  2.29271e+00  1.60153e+00 -7.94254e-01
       H -9.34654e-02  1.27798e-01 -3.43396e-01
       H  2.51291e-01 -3.97097e-01 -1.93881e-01
       H  5.21816e-02  8.38159e-01 -5.28302e-01
       H  1.81932e-01  5.58745e-01 -7.47055e-01
       O -1.18758e-01  1.01580e-02  9.12652e-01
       O -3.52347e+00 -1.71314e+00  1.17758e+00
       O -2.92185e-01 -1.61080e-01  2.29496e-01
       O  5.15975e-01 -1.24715e+00  1.14949e+00
13
# CELL(abcABC):  529.17722   529.17722   529.17722    90.00000    90.00000    90.00000  Step:         180  Bead:       0 forces{eV/ang}  cell{angstrom}
       H  1.83220e-02  3.34644e-02 -5.85941e-01
       H  9.86138e-01 -2.80547e-01  6.53663e-01
       H -1.73038e-01  5.69793e-01  1.35970e-01
       H  4.80298e-01 -2.39402e+00  4.70703e-01
       H  5.75063e-01  1.97667e+00 -3.85464e-01
       H -8.56028e-01  4.00403e-01 -9.29314e-01
       H  3.69754e-02  9.13260e-02 -7.21386e-01
       H -6.88993e-02 -5.11220e-02 -1.75572e-01
       H -3.45215e-01 -3.72916e-01  5.18977e-01
       O -3.58994e-01 -5.94754e-02  7.69131e-02
       O -8.89437e-01  2.22895e-02 -1.18266e-01
       O  8.61166e-01 -4.24045e-01  2.00218e+00
       O -2.66351e-01  4.88172e-01 -9.42461e-01
13
# CELL(abcABC):  529.17722   529.17722   529.17722    90.00000    90.00000    90.00000  Step:         200  Bead:       0 forces{eV/ang}  cell{angstrom}
       H -1.36598e-01 -7.18008e-01  7.80720e-01
       H -1.14813e+00  3.42973e-01 -5.75392e-01
       H  2.56886e-01 -4.29342e-01  3.03394e-01
       H  1.61061e+00 -1.55143e+00  8.23518e-01
       H  7.17966e-01 -2.46152e-01  1.99211e-01
       H -2.44328e-02 -9.59464e-02 -6.64846e-01
       H  4.35636e-01 -4.59244e-01  4.56831e-01
       H  6.73641e-01 -4.01687e-01  1.35104e+00
       H -1.28358e+00 -2.66764e-01 -3.00113e-01
       O  1.26740e+00  8.75575e-01 -1.12481e+00
       O -2.72824e+00  1.98946e+00 -1.28571e+00
       O -3.53115e-01  8.93309e-01 -3.57523e-01
       O  7.11956e-01  6.72600e-02  3.93671e-01
13
# CELL(abcABC):  529.17722   529.17722   529.17722    90.00000    90.00000    90.00000  Step:         220  Bead:       0 forces{eV/ang}  cell{angstrom}
       H  1.23292e-01  3.60137e-01 -7.59518e-01
       H  1.41102e+00 -1.13067e-01 -1.36613e-01
       H -2.34327e+00  2.93269e-01 -2.08701e-01
       H  1.56917e-01 -8.38458e-01  4.54896e-01
       H -9.55523e-01 -7.40235e-02 -1.67525e-01
       H  2.72796e-01 -2.79226e-01  5.11174e-01
       H -3.21993e-01  5.97419e-01  3.78133e-01
       H  1.21309e+00 -3.77764e-01  1.91078e+00
       H -2.07433e+00 -3.73787e-01  6.06854e-02
       O -6.76433e-02  3.98708e-01 -5.43962e-02
       O  2.72114e+00  4.32958e-01 -3.14922e-01
       O  9.87533e-03 -2.38780e-01 -4.81569e-01
       O -1.45374e-01  2.12615e-01 -1.19242e+00
13
# CELL(abcABC):  529.17722   529.17722   529.17722    90.00000    90.00000    90.00000  Step:         240  Bead:       0 forces{eV/ang}  cell{angstrom}
       H  6.32804e-01  6.38929e-01  8.78754e-03
       H -2.03468e-01  4.32668e-01 -4.19906e-01
       H -5.23889e-03 -6.39162e-01 -3.17621e-02
       H -6.00146e-01  8.65844e-02 -3.21497e-01
       H -1.44575e-01 -7.93892e-01 -3.84030e-02
       H  5.29982e-01 -2.51390e-01  3.83457e-01
       H -1.08587e-02  4.01872e-01  1.27620e+00
       H  9.73694e-01 -2.08996e-01  1.53804e+00
       H -3.52600e-01 -5.03005e-02 -3.16141e-01
       O  4.90387e-02  2.55034e-01  6.74980e-01
       O  2.16433e-01  1.21929e+00  2.10823e-01
       O -5.61156e-01 -9.68646e-01 -1.96197e+00
       O -5.23909e-01 -1.21993e-01 -1.00261e+00
13
# CELL(abcABC):  529.17722   529.17722   529.17722    90.00000    90.00000    90.00000  Step:         260  Bead:       0 forces{eV/ang}  cell{angstrom}
       H -9.43523e-01 -1.14898e-01  4.78812e-02
       H -5.92814e-01 -1.29548e-01  2.84152e-01
       H  5.37356e-01  1.15785e+00 -1.39481e-01
       H -9.07584e-02  3.93940e-01 -8.72570e-01
       H -6.57459e-02 -8.88254e-01  3.09576e-01
       H  1.15285e+00 -3.26441e-01  8.50714e-01
       H -1.30541e-01  5.95284e-01  8.60409e-01
       H -2.39714e-01 -9.77512e-02  3.42588e-01
       H  4.13727e-01  5.56126e-02  1.57911e-01
       O  3.48681e-01 -5.15944e-01  2.29160e-01
       O -3.77506e-01 -2.00266e-01  6.94883e-01
       O -4.36685e-01 -2.87425e-01 -1.67367e+00
       O  4.24672e-01  3.57842e-01 -1.09156e+00
13
# CELL(abcABC):  529.17722   529.17722   529.17722    90.00000    90.00000    90.00000  Step:         280  Bead:       0 forces{eV/ang}  cell{angstrom}
       H -9.19839e-01  8.98157e-01  2.94623e-01
       H  3.58359e-01 -4.71139e-01  5.13137e-01
       H  1.01403e+00 -7.74694e-01 -8.93818e-02
       H -4.74654e-01  2.09591e-01 -1.88621e+00
       H  5.64077e-01 -9.67301e-01  2.93488e-01
       H  5.99911e-01  3.71513e-01  5.58739e-01
       H -2.51073e-01  1.44742e-01 -3.04929e-01
       H -2.39390e-01  9.86513e-02 -5.05604e-01
       H  4.11564e-02 -4.69631e-02  9.09496e-02
       O -9.63117e-02 -4.26179e-01 -2.18021e-01
       O -5.59874e-01  1.35173e+00  1.72586e+00
       O -1.47176e-01 -6.58957e-01 -3.81434e-01
       O  1.10781e-01  2.70849e-01 -9.12162e-02
13
# CELL(abcABC):  529.17722   529.17722   529.17722    90.00000    90.00000    90.00000  Step:         300  Bead:       0 forces{eV/ang}  cell{angstrom}
       H  8.68634e-01 -2.83065e-02 -5.15446e-01
       H -3.50007e-01 -5.85459e-01  1.83138e-02
       H -6.18336e-01  3.48055e-01 -1.12210e-01
       H -9.78706e-01  2.17146e-01 -1.95872e+00
       H -8.10215e-01 -4.67785e-01  2.03127e-01
       H -8.66064e-01 -8.53683e-02 -4.09303e-01
       H  6.02655e-02 -3.91223e-01 -4.82808e-01
       H -5.39473e-01 -9.78522e-02 -8.86193e-01
       H  5.22488e-01 -2.42796e-01 -1.35063e-01
       O -1.25553e-01 -3.37975e-01  3.45458e-01
       O  2.11499e+00  9.15551e-03  1.91581e+00
       O  3.46105e-01  8.84742e-01  1.09685e+00
       O  3.75869e-01  7.77666e-01  9.20182e-01
13
# CELL(abcABC):  529.17722   529.17722   529.17722    90.00000    90.00000    90.00000  Step:         320  Bead:       0 forces{eV/ang}  cell{angstrom}
       H -3.85902e-01 -4.42010e-01 -6.67582e-03
       H -8.58127e-02 -3.38072e-01  4.83668e-01
       H -4.44097e-01  2.34985e-01  3.58757e-01
       H -7.89942e-01  6.18324e-01 -1.30834e+00
       H  2.83870e-01  5.47812e-01 -6.70493e-01
       H -1.43832e+00 -1.46232e-01 -5.92483e-01
       H -1.45061e-01 -3.86823e-01 -4.91949e-01
       H -7.12783e-01  5.73653e-01 -1.10453e+00
       H  5.50793e-01 -2.89517e-01  1.16844e-01
       O -8.34799e-01 -3.41014e-01  3.72434e-01
       O  1.05456e+00 -1.29952e+00  1.93777e+00
       O  2.15618e+00  6.61595e-01  1.14556e+00
       O  7.91313e-01  6.06817e-01 -2.40552e-01
13
# CELL(abcABC):  529.17722   529.17722   529.17722    90.00000    90.00000    90.00000  Step:         340  Bead:       0 forces{eV/ang}  cell{angstrom}
       H -2.54906e-01  4.09040e-01  4.41930e-01
       H -5.39508e-01  3.25846e-01  3.44487e-01
       H  5.19195e-01 -5.76100e-01 -1.38411e-01
       H  2.86257e-01  1.94911e-01 -4.70647e-01
       H  7.74103e-01  2.58735e-01 -7.69358e-01
       H -8.30926e-01  3.44158e-01 -5.95916e-02
       H -1.78602e-01  1.96583e-01  8.27266e-02
       H -3.70199e-01  4.77348e-01 -9.10280e-01
       H  1.05452e+00 -1.71262e-01 -7.36829e-01
       O -1.60938e-01  2.54287e-01 -3.25642e-01
       O -1.54488e+00 -2.17448e-01  1.54876e+00
       O  1.34075e+00 -1.15322e+00 -2.64926e-01
       O -9.48641e-02 -3.42880e-01  1.25778e+00
13
# CELL(abcABC):  529.17722   529.17722   529.17722    90.00000    90.00000    90.00000  Step:         360  Bead:       0 forces{eV/ang}  cell{angstrom}
       H -3.77901e-01  1.50899e-01 -6.77734e-01
       H  4.03708e-01 -8.21913e-01 -1.49044e-01
       H  7.23485e-02  4.73229e-01 -1.17894e-01
       H  4.15551e-01 -4.27050e-01  5.89399e-01
       H  8.85905e-02  6.33269e-02 -8.76713e-01
       H -7.37809e-02 -5.25498e-01 -1.30044e-01
       H  6.60146e-01  1.06618e+00  5.53499e-01
       H -5.27990e-01  4.84346e-01 -2.13431e-01
       H  6.62066e-01 -5.76665e-01  2.24764e-02
       O  6.17661e-01  4.10788e-01 -1.45449e-01
       O -1.34486e+00  2.61186e-01  5.67215e-01
       O  2.60098e-03 -7.14108e-01 -1.52358e-01
       O -5.98141e-01  1.55281e-01  7.30077e-01
13
# CELL(abcABC):  529.17722   529.17722   529.17722    90.00000    90.00000    90.00000  Step:         380  Bead:       0 forces{eV/ang}  cell{angstrom}
       H  5.42619e-02  1.63523e-01  3.35569e-01
       H -3.63747e-01  1.89210e-01  2.13644e-01
       H  2.90011e-01 -2.53008e-01  2.22309e-01
       H  3.37748e-01 -4.43844e-01  7.73658e-01
       H  1.81536e-01  3.14442e-02 -1.43045e+00
       H -6.32081e-03  6.77797e-01  1.25829e-01
       H -1.30069e-01  8.60957e-01  2.00847e-01
       H  3.32088e-01 -3.58570e-01  2.09794e-02
       H -1.77369e-01  3.08473e-01 -2.51866e-01
       O  1.58348e-01  1.28216e-01 -8.13969e-01
       O -5.98267e-01  6.12075e-01  4.90774e-01
       O -1.71029e-02 -1.51745e+00 -4.96947e-01
       O -6.11181e-02 -3.98819e-01  6.09623e-01
13
# CELL(abcABC):  529.17722   529.17722   529.17722    90.00000    90.00000    90.00000  Step:         400  Bead:       0 forces{eV/ang}  cell{angstrom}
       H  4.04703e-01 -4.33018e-01  4.63537e-01
       H -6.16167e-03 -1.46115e-01  4.69650e-01
       H  8.03531e-01  1.45820e-01 -1.09007e+00
       H  1.12347e+00 -9.93740e-01  8.99852e-02
       H  2.93236e-01 -3.72892e-01 -1.91789e-02
       H  2.20562e-01 -3.98840e-01 -1.04153e-01
       H  7.10545e-01  4.33617e-01  1.69001e-01
       H -1.56179e-03 -3.19127e-01  4.07492e-01
       H -5.57291e-01 -9.98113e-02  7.71697e-01
       O -3.97979e-01  8.08073e-02 -5.34665e-01
       O -1.47499e+00  1.26747e+00  6.24238e-01
       O -1.37194e+00  4.55522e-01 -2.29818e-01
       O  2.53878e-01  3.80304e-01 -1.01772e+00
13
# CELL(abcABC):  529.17722   529.17722   529.17722    90.00000    90.00000    90.00000  Step:         420  Bead:       0 forces{eV/ang}  cell{angstrom}
       H -3.68081e-01  4.80421e-01 -6.81150e-01
       H -1.51776e-01 -4.93984e-01  2.31893e-01
       H  1.09832e-01 -3.00467e-02  9.19374e-01
       H  4.64057e-01 -9.17119e-01  1.19871e+00
       H  4.73652e-01  7.41885e-01  2.12060e-01
       H  1.50779e-02  1.09728e-01  1.14310e-01
       H -5.66525e-01  8.51893e-02 -3.76353e-02
       H  5.10424e-01 -7.44838e-01  2.15694e-01
       H -7.68654e-01  3.95105e-01  7.04623e-01
       O -5.11742e-01  1.86050e-02  8.66489e-02
       O -8.61917e-01  2.53698e-01 -2.15676e+00
       O  1.15869e+00 -5.14537e-01  2.64939e-01
       O  4.96959e-01  6.15893e-01 -1.07270e+00
13
# CELL(abcABC):  529.17722   529.17722   529.17722    90.00000    90.00000    90.00000  Step:         440  Bead:       0 forces{eV/ang}  cell{angstrom}
       H  4.50795e-01 -3.52880e-02  3.63997e-01
       H -1.06354e-01  6.67062e-01 -6.40242e-01
       H -1.58929e-01  3.40291e-01 -9.43338e-01
       H  7.17177e-01 -3.60827e-01 -4.77041e-01
       H  1.31038e-02 -4.10677e-01  6.49864e-01
       H  3.61798e-02 -2.82819e-01 -2.06545e-02
       H -3.26718e-01 -7.99782e-01 -1.31803e-01
       H  5.70123e-01 -1.19815e+00  2.66000e-01
       H -1.07225e+00  6.71413e-01  1.31576e+00
       O -1.50056e-01 -6.92138e-01  4.97609e-01
       O -8.30759e-01  5.41790e-01  6.07760e-01
       O  1.52114e-01  1.18435e+00  7.88109e-02
       O  7.05576e-01  3.74771e-01 -1.56672e+00
13
# CELL(abcABC):  529.17722   529.17722   529.17722    90.00000    90.00000    90.00000  Step:         460  Bead:       0 forces{eV/ang}  cell{angstrom}
       H  1.66843e-01 -9.38062e-01  3.00404e-01
       H  3.41185e-01  1.74285e-02  8.65426e-02
       H -3.13377e-01 -1.92160e-01  8.63490e-01
       H -1.05302e+00  4.27491e-01  1.88579e-01
       H -4.32667e-01  3.21753e-01  1.80362e-01
       H  1.97613e-02 -1.50119e-01 -2.72405e-02
       H -6.93972e-01 -8.56504e-01 -2.33455e-01
       H  9.35114e-01 -1.66515e+00  1.49534e-03
       H -1.97286e-01  3.47416e-01  2.39800e-01
       O -5.02514e-01 -4.69484e-01  7.36043e-02
       O  1.54870e+00 -3.64465e-01 -8.70224e-01
       O  8.06034e-01  1.56728e+00  1.90501e-01
       O -6.24800e-01  1.95458e+00 -9.93861e-01
13
# CELL(abcABC):  529.17722   529.17722   529.17722    90.00000    90.00000    90.00000  Step:         480  Bead:       0 forces{eV/ang}  cell{angstrom}
       H  1.54934e-01 -1.75421e-01 -7.40138e-01
       H  3.62112e-02  2.54574e-01 -1.13923e-01
       H -7.61917e-01  4.24745e-01 -1.90013e-01
       H -1.25291e-01  5.99248e-01 -9.10008e-01
       H -8.47319e-02  4.41480e-02 -7.42929e-02
       H -8.04221e-02 -1.87476e-01 -1.21426e-04
       H -1.75387e-01 -9.12823e-01 -1.85715e-01
       H  6.74680e-01 -1.36077e+00  2.51005e-01
       H  9.77082e-02 -1.69530e-01 -2.68819e-01
       O  1.47674e-01 -3.35501e-01  3.78063e-01
       O  6.69578e-01 -8.89360e-01  1.28991e+00
       O  2.10510e-01  1.41798e+00  4.70440e-01
       O -7.63546e-01  1.29019e+00  9.36114e-02
13
# CELL(abcABC):  529.17722   529.17722   529.17722    90.00000    90.00000    90.00000  Step:         500  Bead:       0 forces{eV/ang}  cell{angstrom}
       H  1.59789e-01  2.53349e-01  2.06293e-01
       H -1.90071e-01 -2.13249e-01 -5.92567e-02
       H  1.16742e-01 -5.02441e-01 -2.58962e-01
       H -1.29978e+00  5.02269e-01 -9.04684e-01
       H  1.95569e-01  6.21216e-01 -7.61527e-01
       H  6.06899e-01  5.48364e-01 -3.80053e-02
       H -5.52582e-01 -1.11323e+00 -9.78467e-02
       H  5.04494e-01 -9.53002e-01 -1.36111e-01
       H -2.21898e-01 -2.15835e-01 -5.92360e-01
       O  5.28170e-01  1.88758e-01 -9.02756e-02
       O  5.19766e-01 -7.90340e-01  1.85104e+00
       O -1.91323e-01  4.18480e-01 -7.96786e-04
       O -1.75778e-01  1.25566e+00  8.82487e-01
13
# CELL(abcABC):  529.17722   529.17722   529.17722    90.00000    90.00000    90.00000  Step:         520  Bead:       0 forces{eV/ang}  cell{angstrom}
       H  1.06181e-01 -8.47931e-01  3.96371e-01
       H -1.64927e-01 -8.61172e-02  4.47412e-01
       H  1.76971e-01  3.89441e-01  8.29266e-02
       H -5.89607e-01  3.14427e-01 -8.01890e-01
       H  2.77029e-01 -2.02259e-02  9.56378e-02
       H  1.12105e+00 -1.32282e-01 -2.46969e-01
       H -6.31943e-02 -7.72485e-01 -1.85270e-01
       H -1.05800e-01 -2.07814e-02  4.24430e-01
       H  1.15512e-01 -4.93334e-01 -2.28629e-01
       O -1.58917e-01  8.14847e-02 -5.91234e-01
       O  3.21704e-01 -2.74932e-01  5.73075e-01
       O -1.07117e+00  1.44592e+00  2.66779e-01
       O  3.51724e-02  4.16820e-01 -2.32640e-01
13
# CELL(abcABC):  529.17722   529.17722   529.17722    90.00000    90.00000    90.00000  Step:         540  Bead:       0 forces{eV/ang}  cell{angstrom}
       H  2.36298e-01  6.41965e-01 -3.80538e-01
       H  1.05507e-01 -2.90772e-01  9.26641e-02
       H -1.12169e-01  2.68360e-01 -4.90389e-02
       H -5.60820e-01 -8.31419e-02 -2.86525e-01
       H -5.22734e-01 -6.57658e-01  4.50843e-01
       H  1.37052e+00  1.96650e-02 -2.88053e-02
       H  1.83971e-01  3.84481e-02  5.18229e-02
       H -2.97154e-01  7.95987e-01 -6.02195e-01
       H -6.32031e-02  1.84910e-01 -6.37791e-01
       O -7.22805e-01  2.41202e-01  4.99812e-01
       O  1.60353e+00  6.29271e-01 -2.78814e-01
       O -1.44887e+00 -9.33196e-01 -2.91423e-05
       O  2.27926e-01 -8.55041e-01  1.16859e+00
13
# CELL(abcABC):  529.17722   529.17722   529.17722    90.00000    90.00000    90.00000  Step:         560  Bead:       0 forces{eV/ang}  cell{angstrom}
       H -2.14118e-01 -3.70686e-01 -3.53574e-01
       H -1.45860e-01  1.57508e-01 -2.35607e-01
       H -1.03863e-01 -6.64947e-01  3.63996e-01
       H  2.61798e-02  6.36881e-02  1.90657e-01
       H -4.24750e-02 -1.30743e+00  7.52176e-01
       H  5.49484e-01  2.02369e-02  4.48549e-02
       H -6.45677e-02  8.02161e-01  6.38215e-02
       H -4.73927e-01  1.48817e+00  6.32570e-01
       H -3.28237e-02 -3.30689e-01  3.07066e-01
       O -1.93645e-01  2.61895e-01  1.87906e-01
       O  5.11673e-01  1.70610e+00 -1.35173e+00
       O -2.95933e-01 -3.94524e-01  8.94265e-02
       O  4.79875e-01 -1.43149e+00 -6.91561e-01
13
# CELL(abcABC):  529.17722   529.17722   529.17722    90.00000    90.00000    90.00000  Step:         580  Bead:       0 forces{eV/ang}  cell{angstrom}
       H  8.24654e-01 -2.81265e-01  4.42951e-01
       H  6.22423e-02 -1.62359e-01  2.18785e-01
       H -1.27644e-01  5.41837e-01 -2.58747e-01
       H  4.71890e-01  3.19564e-02  2.89420e-01
       H -5.23780e-01 -5.96073e-01  4.32727e-01
       H  1.11782e-01 -4.29618e-01  4.49911e-02
       H  7.25607e-01  5.15453e-03  1.64443e-02
       H  6.17541e-01  1.83878e+00 -6.16554e-02
       H -3.30231e-01  7.74947e-01  4.61775e-01
       O -2.19811e-01 -4.33839e-01  6.93921e-02
       O -3.18337e-02  3.01634e-01 -4.31593e-01
       O -1.35743e+00  5.41255e-01 -1.87316e-01
       O -2.22992e-01 -2.13241e+00 -1.03717e+00
13
# CELL(abcABC):  529.17722   529.17722   529.17722    90.00000    90.00000    90.00000  Step:         600  Bead:       0 forces{eV/ang}  cell{angstrom}
       H -7.55286e-01 -2.21947e-01 -1.47472e-01
       H  3.75636e-01  6.78064e-01 -7.74318e-01
       H  2.37018e-01 -2.72187e-02  3.58593e-01
       H  1.27974e-01 -2.42216e-01  4.03212e-01
       H -2.64082e-01  6.00343e-02 -2.70715e-01
       H -1.14300e-01  3.07889e-01 -3.15679e-01
       H -3.80261e-01  8.07705e-01 -6.39085e-02
       H  2.94798e-01  1.38669e+00  1.18779e+00
       H -3.09058e-01 -4.05897e-01  2.80562e-01
       O  4.85802e-01  3.20302e-02 -2.14000e-01
       O -3.60441e-01  1.51355e-01 -2.60447e-01
       O  1.06789e+00 -7.94194e-01  4.85784e-01
       O -4.05689e-01 -1.73229e+00 -6.69402e-01
13
# CELL(abcABC):  529.17722   529.17722   529.17722    90.00000    90.00000    90.00000  Step:         620  Bead:       0 forces{eV/ang}  cell{angstrom}
       H  6.06650e-01 -1.22585e-02  2.53026e-02
       H -7.20611e-01 -2.12826e-02  1.69803e-01
       H -3.61249e-01 -1.80415e-01 -1.24284e-01
       H  2.86704e-01  1.67842e-01 -3.51784e-01
       H  4.53099e-01  5.42033e-01 -2.27853e-01
       H -5.87328e-01 -3.72484e-01  2.08624e-02
       H  6.81732e-01 -4.67906e-01  4.01832e-01
       H  9.68042e-01  8.98771e-01  3.41866e-01
       H  7.07615e-01  1.70015e-01 -2.51840e-01
       O  3.12397e-01 -5.34219e-02  2.36572e-01
       O -2.63506e-01 -6.10912e-01  6.44196e-01
       O -6.87556e-01  9.77361e-01 -5.00023e-01
       O -1.39599e+00 -1.03734e+00 -3.84650e-01
13
# CELL(abcABC):  529.17722   529.17722   529.17722    90.00000    90.00000    90.00000  Step:         640  Bead:       0 forces{eV/ang}  cell{angstrom}
       H -5.89948e-01 -6.86247e-01  8.45320e-02
       H  8.55172e-01 -2.90494e-01  5.80146e-02
       H -1.14207e-01 -1.58029e-02 -4.49043e-02
       H -5.51947e-01 -1.60581e-01 -3.79087e-02
       H  4.45050e-01  1.37827e+00 -1.09077e+00
       H -4.40841e-01  5.97361e-01 -4.65659e-01
       H -6.66428e-01  3.36302e-01 -1.75659e-01
       H -1.47428e-01  1.83731e-01  3.40999e-01
       H  5.24733e-01 -9.91385e-01 -7.93224e-01
       O  2.46949e-01  2.18897e-01 -2.18124e-01
       O -9.93654e-02 -1.26302e+00  1.14186e+00
       O  1.34343e+00 -9.82360e-02  5.60057e-01
       O -8.05167e-01  7.91201e-01  6.40787e-01
13
# CELL(abcABC):  529.17722   529.17722   529.17722    90.00000    90.00000    90.00000  Step:         660  Bead:       0 forces{eV/ang}  cell{angstrom}
       H -3.31291e-01  3.32362e-01  1.73604e-01
       H -2.02317e-01  3.88893e-01 -2.66789e-01
       H -2.11419e-01 -3.41363e-02  2.49171e-01
       H -6.19199e-01  2.26224e-01 -3.61544e-01
       H  7.33460e-01  9.26997e-01 -8.25187e-01
       H -1.20462e+00 -1.41321e-01 -6.05660e-01
       H  2.17900e-01 -8.42942e-01  9.80311e-02
       H -4.50111e-01 -1.06785e+00 -4.14626e-01
       H  5.43800e-01 -2.68285e-01 -1.13708e+00
       O  2.16194e-01  7.91106e-01 -2.31533e-01
       O  1.38696e-01 -1.04055e+00  7.89804e-01
       O  1.27461e+00  9.39393e-02  2.36254e-01
       O -1.05709e-01  6.35567e-01  2.29556e+00
13
# CELL(abcABC):  529.17722   529.17722   529.17722    90.00000    90.00000    90.00000  Step:         680  Bead:       0 forces{eV/ang}  cell{angstrom}
       H  4.47657e-01  1.95317e-01 -1.04798e-01
       H  8.80274e-03 -8.58770e-03  5.19675e-02
       H  3.00103e-02  2.34029e-01 -3.00875e-01
       H -8.69260e-02  3.34360e-02  7.62932e-02
       H  1.23030e-01  3.45957e-01 -2.91260e-01
       H -1.12053e+00  3.17613e-01 -4.79760e-01
       H -7.44379e-02 -3.90922e-01 -3.98955e-02
       H -6.37455e-01 -1.36847e+00 -2.81954e-01
       H  1.48836e-01 -8.85064e-02 -5.11094e-01
       O -9.96067e-02 -2.74800e-01  5.33898e-01
       O -1.49123e-02 -5.10926e-01  2.64740e-01
       O  8.21544e-01 -7.94178e-03  5.32904e-01
       O  4.53993e-01  1.52381e+00  5.49833e-01
13
# CELL(abcABC):  529.17722   529.17722   529.17722    90.00000    90.00000    90.00000  Step:         700  Bead:       0 forces{eV/ang}  cell{angstrom}
       H -7.85201e-01  3.71508e-01  1.47109e-01
       H  2.67058e-01 -5.46389e-01  6.68475e-01
       H  8.08089e-01 -2.22952e-01  1.92861e-01
       H -4.85025e-02  1.30948e-01 -8.82904e-02
       H  5.97199e-02 -2.98007e-01  3.81526e-01
       H  1.33881e-01 -3.85537e-02 -1.01890e-01
       H -1.64191e-01  6.54900e-01 -1.28697e-02
       H -3.76222e-01 -7.02741e-01  4.45168e-02
       H -1.57849e-01  2.00866e-01  8.45690e-01
       O -2.13421e-01  1.62484e-01  8.38179e-02
       O -6.15494e-01  2.51563e-01 -4.64028e-01
       O  6.78730e-01 -9.95275e-01 -4.32040e-02
       O  4.13403e-01  1.03165e+00 -1.65371e+00
13
# CELL(abcABC):  529.17722   529.17722   529.17722    90.00000    90.00000    90.00000  Step:         720  Bead:       0 forces{eV/ang}  cell{angstrom}
       H  2.99203e-02  1.50360e+00  2.46867e-01
       H -5.48019e-01 -9.69842e-01  4.29109e-01
       H  9.21505e-01  2.28001e-01 -3.50118e-01
       H  7.18562e-01  1.10187e-01  1.82917e-01
       H -8.20896e-01 -7.48947e-01  9.42341e-01
       H  1.20923e+00 -1.66875e-01  4.16824e-01
       H -3.22846e-01 -1.95377e-01  4.83420e-02
       H -7.01038e-02 -1.39079e-01  1.07112e-01
       H  3.38449e-02  9.35366e-02  1.97001e+00
       O  3.23077e-01 -1.18074e+00 -3.55073e-01
       O -5.15910e-01  4.48391e-01 -7.66324e-01
       O -1.26637e+00  2.49289e-01 -5.05441e-01
       O  3.07996e-01  7.67860e-01 -2.36657e+00
13
# CELL(abcABC):  529.17722   529.17722   529.17722    90.00000    90.00000    90.00000  Step:         740  Bead:       0 forces{eV/ang}  cell{angstrom}
       H -6.55256e-01 -3.97604e-01  6.80699e-02
       H  3.61719e-01  4.33953e-01  6.51014e-01
       H  9.43299e-01 -4.20533e-01  2.77306e-01
       H  5.96033e-01  7.85159e-02  4.98526e-01
       H -5.88087e-01 -9.13688e-01  1.18437e+00
       H  4.78320e-01 -3.79927e-01 -3.15109e-03
       H -1.85825e-01 -2.81033e-01  1.30969e-02
       H  4.30564e-02  1.17118e-01  1.14005e-01
       H  2.49793e-01  5.91455e-01  1.62038e+00
       O  3.38476e-01  1.24929e-01 -2.87304e-01
       O -1.08284e+00  9.86452e-01 -1.74885e+00
       O  3.36951e-02  7.89362e-01  4.34034e-02
       O -5.32385e-01 -7.29000e-01 -2.43087e+00
13
# CELL(abcABC):  529.17722   529.17722   529.17722    90.00000    90.00000    90.00000  Step:         760  Bead:       0 forces{eV/ang}  cell{angstrom}
       H  4.19373e-01 -2.52062e-01 -3.58298e-01
       H  2.53548e-01 -1.46782e-01 -8.75517e-01
       H -1.63104e+00  3.20571e-01  7.61773e-03
       H  2.64248e-01 -1.37054e-01  3.69912e-01
       H -8.76907e-01 -4.19925e-01  5.92706e-01