13
Lattice="529.1772105638412 0.0 0.0 0.0 529.1772105638412 0.0 0.0 0.0 529.1772105638412" Properties=species:S:1:pos:R:3:forces_component_raw:R:3 ipi_comment="Step:           0  Bead:       0 forces_component_raw{ase}  cell{ase}" pbc="T T T"
H        0.00000000       0.00000000       0.00000000      -0.62964888       1.86802604      -0.02529698
H        0.00000000       0.00000000       0.00000000       0.06653557       0.08052715      -0.02813913
H        0.00000000       0.00000000       0.00000000       2.33237189      -0.55992167       0.13723657
H        0.00000000       0.00000000       0.00000000       0.50634230      -0.35995773       0.34182229
H        0.00000000       0.00000000       0.00000000       0.45743715      -0.27052443       0.13997326
H        0.00000000       0.00000000       0.00000000      -0.04602690       0.26919497      -0.76334946
H        0.00000000       0.00000000       0.00000000       0.12893530      -0.70595824      -0.30989102
H        0.00000000       0.00000000       0.00000000       0.02232613       0.07131516      -0.20293041
H        0.00000000       0.00000000       0.00000000      -0.49595269      -0.18621035      -0.18201199
O        0.00000000       0.00000000       0.00000000      -1.77364779      -1.49002680      -0.01791209
O        0.00000000       0.00000000       0.00000000      -0.69156074       0.35575784      -0.36452197
O        0.00000000       0.00000000       0.00000000      -0.46351006       0.67794687       1.00524291
O        0.00000000       0.00000000       0.00000000       0.58639871       0.24983120       0.26977801
13
Lattice="529.1772105638412 0.0 0.0 0.0 529.1772105638412 0.0 0.0 0.0 529.1772105638412" Properties=species:S:1:pos:R:3:forces_component_raw:R:3 ipi_comment="Step:          20  Bead:       0 forces_component_raw{ase}  cell{ase}" pbc="T T T"
H        0.00000000       0.00000000       0.00000000      -0.18584979      -5.05698764       0.04800454
H        0.00000000       0.00000000       0.00000000      -1.05653850      -0.76704267       1.77363883
H        0.00000000       0.00000000       0.00000000      -6.37347486      -0.51307169       0.79059723
H        0.00000000       0.00000000       0.00000000      -0.33561870      -1.46125483      -0.29232429
H        0.00000000       0.00000000       0.00000000      -1.29070842       0.09008653      -0.52071215
H        0.00000000       0.00000000       0.00000000      -0.06065298       0.05473342      -0.86149100
H        0.00000000       0.00000000       0.00000000       0.20818126      -0.25110637      -0.61274186
H        0.00000000       0.00000000       0.00000000       1.11655653       0.02947123       1.28791019
H        0.00000000       0.00000000       0.00000000      -0.15116408       0.16356514      -0.76618332
O        0.00000000       0.00000000       0.00000000      -0.55568197      -0.95085989       0.80214942
O        0.00000000       0.00000000       0.00000000       7.33524211       1.50727528       0.27462909
O        0.00000000       0.00000000       0.00000000      -0.01770845       5.17728604       1.57780924
O        0.00000000       0.00000000       0.00000000       1.36741786       1.97790544      -3.50128593
13
Lattice="529.1772105638412 0.0 0.0 0.0 529.1772105638412 0.0 0.0 0.0 529.1772105638412" Properties=species:S:1:pos:R:3:forces_component_raw:R:3 ipi_comment="Step:          40  Bead:       0 forces_component_raw{ase}  cell{ase}" pbc="T T T"
H        0.00000000       0.00000000       0.00000000      -0.44685151       2.07878779      -0.19149302
H        0.00000000       0.00000000       0.00000000      -1.08602116      -1.39763826       0.62131943
H        0.00000000       0.00000000       0.00000000       1.52142592      -0.72609447      -0.38428884
H        0.00000000       0.00000000       0.00000000       0.43678584      -0.07861298       0.07910043
H        0.00000000       0.00000000       0.00000000      -0.63061532      -1.29271719      -0.32191992
H        0.00000000       0.00000000       0.00000000       0.07326660      -0.66526411       0.17540438
H        0.00000000       0.00000000       0.00000000       0.19477816      -0.89996724      -0.22926201
H        0.00000000       0.00000000       0.00000000       0.54246145      -0.26869285       0.99756471
H        0.00000000       0.00000000       0.00000000      -0.17818682       0.00983846      -0.14288963
O        0.00000000       0.00000000       0.00000000      -0.33277223       0.55508469       0.82841532
O        0.00000000       0.00000000       0.00000000      -0.26098844       1.39393463       0.37798274
O        0.00000000       0.00000000       0.00000000      -0.35422449      -0.09987353       0.01702845
O        0.00000000       0.00000000       0.00000000       0.52094200       1.39121508      -1.82696203
13
Lattice="529.1772105638412 0.0 0.0 0.0 529.1772105638412 0.0 0.0 0.0 529.1772105638412" Properties=species:S:1:pos:R:3:forces_component_raw:R:3 ipi_comment="Step:          60  Bead:       0 forces_component_raw{ase}  cell{ase}" pbc="T T T"
H        0.00000000       0.00000000       0.00000000      -0.12709058       2.13353426      -0.02980183
H        0.00000000       0.00000000       0.00000000      -0.46074238      -1.47986039       0.91498712
H        0.00000000       0.00000000       0.00000000       4.08714753      -0.09366597      -0.00229607
H        0.00000000       0.00000000       0.00000000      -0.64695363      -0.05023172       0.01809354
H        0.00000000       0.00000000       0.00000000      -0.79137359       0.44905345       0.10029152
H        0.00000000       0.00000000       0.00000000      -0.10834880       0.13439583       0.91853915
H        0.00000000       0.00000000       0.00000000      -0.10448560       0.36432716      -0.28535459
H        0.00000000       0.00000000       0.00000000      -0.43142133      -0.29419692       0.09679528
H        0.00000000       0.00000000       0.00000000       0.05731081      -0.37196436       0.53775456
O        0.00000000       0.00000000       0.00000000      -3.08662240       0.38557371      -0.43936887
O        0.00000000       0.00000000       0.00000000       1.26885365      -0.57721242      -0.16762008
O        0.00000000       0.00000000       0.00000000       0.07872982      -1.79787658      -0.77470367
O        0.00000000       0.00000000       0.00000000       0.26499649       1.19812395      -0.88731604
13
Lattice="529.1772105638412 0.0 0.0 0.0 529.1772105638412 0.0 0.0 0.0 529.1772105638412" Properties=species:S:1:pos:R:3:forces_component_raw:R:3 ipi_comment="Step:          80  Bead:       0 forces_component_raw{ase}  cell{ase}" pbc="T T T"
H        0.00000000       0.00000000       0.00000000      -0.11911351      -1.03114925      -0.20197313
H        0.00000000       0.00000000       0.00000000       0.44901841       1.79132189      -2.08271069
H        0.00000000       0.00000000       0.00000000      -3.53385221       0.08489965       0.12270170
H        0.00000000       0.00000000       0.00000000      -0.07542363       0.85249082       0.20120542
H        0.00000000       0.00000000       0.00000000       0.32510158       0.04636866      -0.14044429
H        0.00000000       0.00000000       0.00000000       0.46143032      -0.99102355       0.17622115
H        0.00000000       0.00000000       0.00000000      -0.24516316      -0.04561338       1.10700748
H        0.00000000       0.00000000       0.00000000      -0.27070296       1.14675041      -1.24805706
H        0.00000000       0.00000000       0.00000000       0.51994926       0.82461863      -0.97075115
O        0.00000000       0.00000000       0.00000000      -0.32924501       0.41340681       0.43305784
O        0.00000000       0.00000000       0.00000000       3.63874046      -1.25935916      -0.03004576
O        0.00000000       0.00000000       0.00000000      -0.24104173       0.83729573      -1.04651827
O        0.00000000       0.00000000       0.00000000      -0.57969781      -2.67000725       3.68030675
13
Lattice="529.1772105638412 0.0 0.0 0.0 529.1772105638412 0.0 0.0 0.0 529.1772105638412" Properties=species:S:1:pos:R:3:forces_component_raw:R:3 ipi_comment="Step:         100  Bead:       0 forces_component_raw{ase}  cell{ase}" pbc="T T T"
H        0.00000000       0.00000000       0.00000000       0.72109230       0.46711051       0.11444397
H        0.00000000       0.00000000       0.00000000       1.18064987       0.31152796      -0.23254004
H        0.00000000       0.00000000       0.00000000       0.04130015       0.00568517      -0.35623663
H        0.00000000       0.00000000       0.00000000      -1.39931901      -0.04538533       1.32271237
H        0.00000000       0.00000000       0.00000000      -0.45378449       1.47831493       0.45937831
H        0.00000000       0.00000000       0.00000000       0.51211447      -0.11226652       0.66525054
H        0.00000000       0.00000000       0.00000000      -0.50130980       0.27768786       0.93447397
H        0.00000000       0.00000000       0.00000000      -1.35304703       1.38853075      -1.44500195
H        0.00000000       0.00000000       0.00000000       0.37426944       0.39326863       0.35933752
O        0.00000000       0.00000000       0.00000000      -0.53074227       1.67974557      -0.38335706
O        0.00000000       0.00000000       0.00000000       2.07060497      -1.61462661      -1.56169748
O        0.00000000       0.00000000       0.00000000      -0.37843063      -1.53607973      -1.97712071
O        0.00000000       0.00000000       0.00000000      -0.28339797      -2.69351318       2.10035719
13
Lattice="529.1772105638412 0.0 0.0 0.0 529.1772105638412 0.0 0.0 0.0 529.1772105638412" Properties=species:S:1:pos:R:3:forces_component_raw:R:3 ipi_comment="Step:         120  Bead:       0 forces_component_raw{ase}  cell{ase}" pbc="T T T"
H        0.00000000       0.00000000       0.00000000      -0.35909692      -0.48609327      -0.64719729
H        0.00000000       0.00000000       0.00000000      -1.81914194      -1.52629435       0.66930038
H        0.00000000       0.00000000       0.00000000       0.34502281      -0.27856398      -0.20394081
H        0.00000000       0.00000000       0.00000000       0.13814069       1.89097528       0.33983688
H        0.00000000       0.00000000       0.00000000       1.51866530       0.15894557      -0.66330173
H        0.00000000       0.00000000       0.00000000       0.23251611      -0.24182984       0.14463859
H        0.00000000       0.00000000       0.00000000      -0.34348006       0.66949077       0.60111883
H        0.00000000       0.00000000       0.00000000      -1.86351498       1.25039478      -0.61765743
H        0.00000000       0.00000000       0.00000000       0.86358169       0.77169510       0.28717039
O        0.00000000       0.00000000       0.00000000       1.08887607      -1.01024825       1.18878657
O        0.00000000       0.00000000       0.00000000      -1.40880268      -2.07732784      -0.22959082
O        0.00000000       0.00000000       0.00000000      -0.48340710       1.98914639      -0.31712472
O        0.00000000       0.00000000       0.00000000       2.09064100      -1.11029036      -0.55203884
13
Lattice="529.1772105638412 0.0 0.0 0.0 529.1772105638412 0.0 0.0 0.0 529.1772105638412" Properties=species:S:1:pos:R:3:forces_component_raw:R:3 ipi_comment="Step:         140  Bead:       0 forces_component_raw{ase}  cell{ase}" pbc="T T T"
H        0.00000000       0.00000000       0.00000000      -0.91840764       2.24488302      -0.38364385
H        0.00000000       0.00000000       0.00000000       0.04969323      -0.61415990       1.51797900
H        0.00000000       0.00000000       0.00000000       0.63837789      -0.07244038       0.12919200
H        0.00000000       0.00000000       0.00000000      -1.21320942      -0.48396861       0.81630560
H        0.00000000       0.00000000       0.00000000       0.21371995       2.36076441      -0.34664222
H        0.00000000       0.00000000       0.00000000       0.25963895      -0.29368217       0.11234056
H        0.00000000       0.00000000       0.00000000       0.16251946      -0.03964831       0.00897754
H        0.00000000       0.00000000       0.00000000      -0.82068455       0.86372054      -0.51267954
H        0.00000000       0.00000000       0.00000000       0.60581657       0.10542025       1.24653579
O        0.00000000       0.00000000       0.00000000      -0.02771151      -1.34367013       0.25764783
O        0.00000000       0.00000000       0.00000000       1.23019507      -2.06321131      -0.59278079
O        0.00000000       0.00000000       0.00000000      -0.30320905       0.10871617       0.01989579
O        0.00000000       0.00000000       0.00000000       0.12326107      -0.77272357      -2.27312770
13
Lattice="529.1772105638412 0.0 0.0 0.0 529.1772105638412 0.0 0.0 0.0 529.1772105638412" Properties=species:S:1:pos:R:3:forces_component_raw:R:3 ipi_comment="Step:         160  Bead:       0 forces_component_raw{ase}  cell{ase}" pbc="T T T"
H        0.00000000       0.00000000       0.00000000      -0.03013873       0.38508817       0.19111799
H        0.00000000       0.00000000       0.00000000      -1.04609901       0.09072031      -0.02183423
H        0.00000000       0.00000000       0.00000000       0.19141472      -0.86593025      -0.49380907
H        0.00000000       0.00000000       0.00000000       0.65024404       0.51689696      -0.28475955
H        0.00000000       0.00000000       0.00000000       1.95522210       1.54642409      -0.74688706
H        0.00000000       0.00000000       0.00000000       0.05331434      -0.01820284      -0.38434812
H        0.00000000       0.00000000       0.00000000       0.37944706      -0.50609560      -0.15255147
H        0.00000000       0.00000000       0.00000000       0.03483223       0.68960904      -0.26261050
H        0.00000000       0.00000000       0.00000000       0.15000798       0.57930467      -0.69251418
O        0.00000000       0.00000000       0.00000000       0.42106928       0.55237829       0.87594543
O        0.00000000       0.00000000       0.00000000      -2.95039081      -1.76087803       1.10179355
O        0.00000000       0.00000000       0.00000000      -0.55577091      -0.01743664       0.23308271
O        0.00000000       0.00000000       0.00000000       0.74684769      -1.19187814       0.63737450
13
Lattice="529.1772105638412 0.0 0.0 0.0 529.1772105638412 0.0 0.0 0.0 529.1772105638412" Properties=species:S:1:pos:R:3:forces_component_raw:R:3 ipi_comment="Step:         180  Bead:       0 forces_component_raw{ase}  cell{ase}" pbc="T T T"
H        0.00000000       0.00000000       0.00000000      -0.29539991       0.93923871      -0.78238267
H        0.00000000       0.00000000       0.00000000       0.57630764      -0.63320293       1.05080018
H        0.00000000       0.00000000       0.00000000       0.44773051       0.33364126      -0.17732527
H        0.00000000       0.00000000       0.00000000       0.26494426      -2.31078005       0.43791828
H        0.00000000       0.00000000       0.00000000       0.56739592       2.02077448      -0.39928094
H        0.00000000       0.00000000       0.00000000      -0.82012916       0.37896927      -1.02200096
H        0.00000000       0.00000000       0.00000000       0.05549487       0.15532932      -0.64628742
H        0.00000000       0.00000000       0.00000000       0.00408223       0.05786570      -0.30786327
H        0.00000000       0.00000000       0.00000000      -0.43153222      -0.35250489       0.49393558
O        0.00000000       0.00000000       0.00000000      -0.23500437      -0.20128481       0.27865838
O        0.00000000       0.00000000       0.00000000      -0.67142442      -0.07003499      -0.08177770
O        0.00000000       0.00000000       0.00000000       0.80443323      -0.68196125       2.09430757
O        0.00000000       0.00000000       0.00000000      -0.26689860       0.36395018      -0.93870176
13
Lattice="529.1772105638412 0.0 0.0 0.0 529.1772105638412 0.0 0.0 0.0 529.1772105638412" Properties=species:S:1:pos:R:3:forces_component_raw:R:3 ipi_comment="Step:         200  Bead:       0 forces_component_raw{ase}  cell{ase}" pbc="T T T"
H        0.00000000       0.00000000       0.00000000      -0.68128845       0.63754654       0.72291159
H        0.00000000       0.00000000       0.00000000      -1.56240484      -0.09049171      -0.27709864
H        0.00000000       0.00000000       0.00000000       0.92571489      -0.62829927      -0.04853978
H        0.00000000       0.00000000       0.00000000       1.08232662      -1.47145246       0.73192459
H        0.00000000       0.00000000       0.00000000       0.43953910      -0.10280565       0.10475893
H        0.00000000       0.00000000       0.00000000      -0.11911435       0.02031401      -0.78949450
H        0.00000000       0.00000000       0.00000000       0.48111491      -0.48998613       0.51157514
H        0.00000000       0.00000000       0.00000000       0.81959164      -0.36331142       1.34955948
H        0.00000000       0.00000000       0.00000000      -1.18624252      -0.15716092      -0.51900390
O        0.00000000       0.00000000       0.00000000       1.54295670       0.53811072      -0.76068028
O        0.00000000       0.00000000       0.00000000      -2.20790648       1.79924153      -1.09762640
O        0.00000000       0.00000000       0.00000000      -0.18006440       0.33378385      -0.42641386
O        0.00000000       0.00000000       0.00000000       0.64577717      -0.02548909       0.49812763
13
Lattice="529.1772105638412 0.0 0.0 0.0 529.1772105638412 0.0 0.0 0.0 529.1772105638412" Properties=species:S:1:pos:R:3:forces_component_raw:R:3 ipi_comment="Step:         220  Bead:       0 forces_component_raw{ase}  cell{ase}" pbc="T T T"
H        0.00000000       0.00000000       0.00000000       0.30507392       0.74023941      -1.03419322
H        0.00000000       0.00000000       0.00000000       1.28506019      -0.44658608      -0.21845128
H        0.00000000       0.00000000       0.00000000      -2.88078557       0.46800028      -0.50793994
H        0.00000000       0.00000000       0.00000000       0.43839801      -1.06841341       0.49105708
H        0.00000000       0.00000000       0.00000000      -0.71165602       0.11025953      -0.31137416
H        0.00000000       0.00000000       0.00000000       0.34202975      -0.37194753       0.36520304
H        0.00000000       0.00000000       0.00000000      -0.21381981       0.59833842       0.50889087
H        0.00000000       0.00000000       0.00000000       1.63651531      -0.25926873       1.74578533
H        0.00000000       0.00000000       0.00000000      -1.96076152      -0.18500325      -0.49747847
O        0.00000000       0.00000000       0.00000000       0.00053516       0.06449398       0.13440110
O        0.00000000       0.00000000       0.00000000       2.69525906       0.49817169      -0.04413796
O        0.00000000       0.00000000       0.00000000      -0.23742589       0.04014875      -0.36264457
O        0.00000000       0.00000000       0.00000000      -0.69842259      -0.18843307      -0.26911783
13
Lattice="529.1772105638412 0.0 0.0 0.0 529.1772105638412 0.0 0.0 0.0 529.1772105638412" Properties=species:S:1:pos:R:3:forces_component_raw:R:3 ipi_comment="Step:         240  Bead:       0 forces_component_raw{ase}  cell{ase}" pbc="T T T"
H        0.00000000       0.00000000       0.00000000       0.41842206       1.19503987      -0.33291911
H        0.00000000       0.00000000       0.00000000      -0.39377074      -0.27234554      -0.17592816
H        0.00000000       0.00000000       0.00000000      -0.05309827      -0.76849291      -0.34910947
H        0.00000000       0.00000000       0.00000000      -0.55198492      -0.02268222      -0.32368180
H        0.00000000       0.00000000       0.00000000      -0.06140704      -0.74633280      -0.14714480
H        0.00000000       0.00000000       0.00000000       0.53946399      -0.26934270       0.28111577
H        0.00000000       0.00000000       0.00000000       0.06917948       0.42851706       1.37274686
H        0.00000000       0.00000000       0.00000000       1.27577208      -0.12320642       1.42312049
H        0.00000000       0.00000000       0.00000000      -0.25692186       0.05693252      -0.63598884
O        0.00000000       0.00000000       0.00000000       0.22838090       0.27506449       1.14351362
O        0.00000000       0.00000000       0.00000000       0.36886575       1.37487125       0.36270579
O        0.00000000       0.00000000       0.00000000      -0.70577914      -0.87251876      -1.94362201
O        0.00000000       0.00000000       0.00000000      -0.87712228      -0.25550383      -0.67480835
13
Lattice="529.1772105638412 0.0 0.0 0.0 529.1772105638412 0.0 0.0 0.0 529.1772105638412" Properties=species:S:1:pos:R:3:forces_component_raw:R:3 ipi_comment="Step:         260  Bead:       0 forces_component_raw{ase}  cell{ase}" pbc="T T T"
H        0.00000000       0.00000000       0.00000000      -1.13091750       0.56554193      -0.30264735
H        0.00000000       0.00000000       0.00000000      -1.01856378      -0.64189937       0.63924701
H        0.00000000       0.00000000       0.00000000       0.61306980       1.01680171      -0.49732498
H        0.00000000       0.00000000       0.00000000      -0.09365073       0.23252776      -0.85775413
H        0.00000000       0.00000000       0.00000000      -0.21063918      -1.09071571       0.19532943
H        0.00000000       0.00000000       0.00000000       1.27503161      -0.43070702       0.82315827
H        0.00000000       0.00000000       0.00000000      -0.07890297       0.59351459       0.92939134
H        0.00000000       0.00000000       0.00000000      -0.13713641      -0.05849268       0.19848468
H        0.00000000       0.00000000       0.00000000       0.51754690       0.09730638      -0.00062058
O        0.00000000       0.00000000       0.00000000       0.58384204      -0.54423925       0.61726824
O        0.00000000       0.00000000       0.00000000      -0.11248422       0.24172932       0.83508212
O        0.00000000       0.00000000       0.00000000      -0.49933296      -0.34351981      -1.64551746
O        0.00000000       0.00000000       0.00000000       0.29213740       0.36215215      -0.93409659
13
Lattice="529.1772105638412 0.0 0.0 0.0 529.1772105638412 0.0 0.0 0.0 529.1772105638412" Properties=species:S:1:pos:R:3:forces_component_raw:R:3 ipi_comment="Step:         280  Bead:       0 forces_component_raw{ase}  cell{ase}" pbc="T T T"
H        0.00000000       0.00000000       0.00000000      -1.28240503       1.60677049      -0.12616274
H        0.00000000       0.00000000       0.00000000      -0.20681333      -1.44044692       1.43975469
H        0.00000000       0.00000000       0.00000000       1.07865347      -1.17924335      -0.32505145
H        0.00000000       0.00000000       0.00000000      -0.58366726       0.11199194      -1.97192233
H        0.00000000       0.00000000       0.00000000       0.45841560      -1.18316107       0.24576780
H        0.00000000       0.00000000       0.00000000       0.95460895       0.09721018       0.48039510
H        0.00000000       0.00000000       0.00000000       0.05901750      -0.16339081      -0.44338313
H        0.00000000       0.00000000       0.00000000      -0.21975867       0.04375465      -0.48623915
H        0.00000000       0.00000000       0.00000000      -0.05519172      -0.13723359       0.14992231
O        0.00000000       0.00000000       0.00000000       0.59050529       0.19812437      -0.18171793
O        0.00000000       0.00000000       0.00000000      -0.45587996       1.72552556       1.84693103
O        0.00000000       0.00000000       0.00000000      -0.60532611      -0.38858934      -0.18599687
O        0.00000000       0.00000000       0.00000000       0.26784128       0.70868789      -0.44229731
13
Lattice="529.1772105638412 0.0 0.0 0.0 529.1772105638412 0.0 0.0 0.0 529.1772105638412" Properties=species:S:1:pos:R:3:forces_component_raw:R:3 ipi_comment="Step:         300  Bead:       0 forces_component_raw{ase}  cell{ase}" pbc="T T T"
H        0.00000000       0.00000000       0.00000000       1.12133289      -0.16582765      -0.81346266
H        0.00000000       0.00000000       0.00000000      -0.14324390      -0.96378681       0.18163008
H        0.00000000       0.00000000       0.00000000      -1.61991947       0.21201652      -0.03463374
H        0.00000000       0.00000000       0.00000000      -1.10949817       0.06741373      -1.89351632
H        0.00000000       0.00000000       0.00000000      -0.99855620      -0.50151622       0.05781581
H        0.00000000       0.00000000       0.00000000      -0.85832568      -0.15647397      -0.56982824
H        0.00000000       0.00000000       0.00000000       0.20396896      -0.34921695      -0.45712689
H        0.00000000       0.00000000       0.00000000      -0.38746210      -0.24260859      -0.80883240
H        0.00000000       0.00000000       0.00000000       0.43451583      -0.31028872      -0.27385658
O        0.00000000       0.00000000       0.00000000       0.41823829       0.09697488       0.15660465
O        0.00000000       0.00000000       0.00000000       2.76173427       0.15850460       2.01534138
O        0.00000000       0.00000000       0.00000000      -0.01144027       1.23462733       1.24567968
O        0.00000000       0.00000000       0.00000000       0.18865554       0.92018186       1.19418523
13
Lattice="529.1772105638412 0.0 0.0 0.0 529.1772105638412 0.0 0.0 0.0 529.1772105638412" Properties=species:S:1:pos:R:3:forces_component_raw:R:3 ipi_comment="Step:         320  Bead:       0 forces_component_raw{ase}  cell{ase}" pbc="T T T"
H        0.00000000       0.00000000       0.00000000      -0.60645127      -0.04775001      -0.13028635
H        0.00000000       0.00000000       0.00000000      -0.02580822      -0.67918348       0.67544393
H        0.00000000       0.00000000       0.00000000      -0.39439522       0.05086633       0.41039006
H        0.00000000       0.00000000       0.00000000      -1.11618460       0.63378571      -1.37504190
H        0.00000000       0.00000000       0.00000000      -0.02458935       0.57794350      -0.74176718
H        0.00000000       0.00000000       0.00000000      -1.29236066      -0.32941896      -0.65133209
H        0.00000000       0.00000000       0.00000000       0.00570832      -0.51765660      -0.52670027
H        0.00000000       0.00000000       0.00000000      -0.64226282       0.60551320      -1.24514507
H        0.00000000       0.00000000       0.00000000       0.63994356      -0.28342190      -0.01963593
O        0.00000000       0.00000000       0.00000000      -0.87799489      -0.20236337       0.51660372
O        0.00000000       0.00000000       0.00000000       1.61401242      -1.35454551       2.06899406
O        0.00000000       0.00000000       0.00000000       1.98239842       0.77714691       1.23670734
O        0.00000000       0.00000000       0.00000000       0.73798429       0.76908419      -0.21823032
13
Lattice="529.1772105638412 0.0 0.0 0.0 529.1772105638412 0.0 0.0 0.0 529.1772105638412" Properties=species:S:1:pos:R:3:forces_component_raw:R:3 ipi_comment="Step:         340  Bead:       0 forces_component_raw{ase}  cell{ase}" pbc="T T T"
H        0.00000000       0.00000000       0.00000000      -0.76625455       1.00905346       0.26680745
H        0.00000000       0.00000000       0.00000000      -0.91534912      -0.42895633       1.01555195
H        0.00000000       0.00000000       0.00000000       1.11380739      -0.76528525      -0.28641195
H        0.00000000       0.00000000       0.00000000      -0.06047296       0.28642442      -0.53400936
H        0.00000000       0.00000000       0.00000000       0.49533500       0.29304139      -0.74218154
H        0.00000000       0.00000000       0.00000000      -0.56525720       0.13833968      -0.07651853
H        0.00000000       0.00000000       0.00000000      -0.03037199      -0.00263846       0.03264481
H        0.00000000       0.00000000       0.00000000      -0.29590743       0.47561753      -0.96924411
H        0.00000000       0.00000000       0.00000000       1.18190270      -0.17035230      -0.88631060
O        0.00000000       0.00000000       0.00000000      -0.07231214       0.54420223      -0.31478692
O        0.00000000       0.00000000       0.00000000      -1.15170516      -0.31212495       1.59890564
O        0.00000000       0.00000000       0.00000000       1.11707180      -1.00035063      -0.21384302
O        0.00000000       0.00000000       0.00000000      -0.05048636      -0.06697079       1.10939619
13
Lattice="529.1772105638412 0.0 0.0 0.0 529.1772105638412 0.0 0.0 0.0 529.1772105638412" Properties=species:S:1:pos:R:3:forces_component_raw:R:3 ipi_comment="Step:         360  Bead:       0 forces_component_raw{ase}  cell{ase}" pbc="T T T"
H        0.00000000       0.00000000       0.00000000      -0.71205518       0.84899769      -0.91067669
H        0.00000000       0.00000000       0.00000000       0.25950616      -1.49160098       0.17325097
H        0.00000000       0.00000000       0.00000000       0.32295354       0.35251365      -0.34125392
H        0.00000000       0.00000000       0.00000000       0.23789195      -0.42245233       0.67685276
H        0.00000000       0.00000000       0.00000000      -0.11220303       0.09951942      -0.85442239
H        0.00000000       0.00000000       0.00000000       0.04351108      -0.68997986      -0.15370382
H        0.00000000       0.00000000       0.00000000       0.83611306       1.05602320       0.60110203