13
# CELL(abcABC):  529.17722   529.17722   529.17722    90.00000    90.00000    90.00000  Step:           0  Bead:       0 forces{eV/ang}  cell{angstrom}
       H -5.18513e-01  1.94936e+00  2.19885e-01
       H -1.34922e-02  5.11871e-02  2.33860e-01
       H  2.45439e+00 -2.67298e-01  1.15915e-01
       H  8.00197e-01 -3.79025e-01  4.18861e-01
       H  8.16540e-01 -7.48388e-02  2.57439e-01
       H -4.89758e-02  6.35998e-01 -8.21058e-01
       H  1.25720e-01 -5.80355e-01 -3.65126e-01
       H -4.27139e-02 -9.14171e-03 -6.90675e-02
       H -5.21139e-01 -2.34200e-01 -7.82003e-02
       O -2.10780e+00 -1.93252e+00 -4.76000e-01
       O -1.18949e+00  2.33861e-01 -4.67243e-01
       O -3.85061e-01  2.47699e-01  1.00277e+00
       O  6.30340e-01  3.59277e-01  2.79670e-02
13
# CELL(abcABC):  529.17722   529.17722   529.17722    90.00000    90.00000    90.00000  Step:          20  Bead:       0 forces{eV/ang}  cell{angstrom}
       H -4.07443e-01 -4.59913e+00 -3.24633e-02
       H  2.53452e-01  4.48643e-01 -1.96257e-01
       H -6.22702e+00 -5.81613e-01  9.51129e-01
       H -5.00310e-01 -1.22867e+00 -2.05020e-01
       H -1.22003e+00 -8.16252e-02 -4.27257e-01
       H -1.42079e-01 -1.00787e-01 -5.05436e-01
       H  1.87618e-01 -2.72261e-01 -5.61418e-01
       H  4.49383e-01 -2.19122e-01  1.07049e+00
       H -5.79389e-02  3.96036e-02 -1.88058e-01
       O -5.46139e-01 -1.17421e+00  1.11953e+00
       O  7.30359e+00  1.57321e+00 -1.44071e-01
       O  2.80743e-01  5.11702e+00  1.17263e+00
       O  6.26180e-01  1.07894e+00 -2.05381e+00
13
# CELL(abcABC):  529.17722   529.17722   529.17722    90.00000    90.00000    90.00000  Step:          40  Bead:       0 forces{eV/ang}  cell{angstrom}
       H -3.86888e-01  1.40704e+00  2.15389e-01
       H -4.48990e-01 -7.50939e-01  7.50456e-01
       H  7.93681e-01 -3.67612e-01 -2.70936e-01
       H  1.14631e+00 -6.63099e-01 -4.42401e-02
       H -2.79796e-01 -1.25504e+00 -4.49934e-01
       H  7.50348e-02 -2.23570e-01  2.53844e-02
       H -5.78512e-02 -1.51639e-01  2.85828e-01
       H  7.38505e-01 -3.55352e-01  1.36279e+00
       H  1.30407e-01  1.89843e-01 -2.65261e-02
       O  3.43305e-01  1.25625e-01  5.86486e-03
       O -1.42852e+00  1.81952e+00  6.39066e-01
       O -1.12842e-01 -5.61380e-01 -4.66706e-01
       O -5.12360e-01  7.86610e-01 -2.02644e+00
13
# CELL(abcABC):  529.17722   529.17722   529.17722    90.00000    90.00000    90.00000  Step:          60  Bead:       0 forces{eV/ang}  cell{angstrom}
       H -2.60918e-02  6.86845e-01  4.08108e-01
       H -9.31899e-01 -6.68805e-01  1.04309e+00
       H  1.64306e+00 -1.32987e-01  2.25949e-01
       H -1.36479e-01 -4.19687e-01 -2.78199e-01
       H -5.57343e-01  4.35008e-01  2.45358e-01
       H -1.41430e-01  4.46942e-01  7.46180e-01
       H -2.25616e-01  4.56822e-01 -1.64464e-01
       H -2.66249e-01 -9.61996e-01  6.55760e-01
       H  3.96550e-01 -3.78133e-01  8.89924e-01
       O -7.82398e-01  3.40627e-01 -9.23210e-01
       O  6.02690e-01 -1.56960e-01 -1.79465e-01
       O  2.27493e-01 -1.11879e+00 -9.30396e-01
       O  1.97714e-01  1.47111e+00 -1.73864e+00
13
# CELL(abcABC):  529.17722   529.17722   529.17722    90.00000    90.00000    90.00000  Step:          80  Bead:       0 forces{eV/ang}  cell{angstrom}
       H  3.18363e-01 -2.94170e+00 -2.86130e-01
       H  1.34537e+00  1.79202e+00 -2.08860e+00
       H -3.45272e+00  3.50511e-01  2.62762e-01
       H -1.16659e-01  4.08109e-01  3.48273e-01
       H  1.88318e-01  7.04272e-02 -8.86476e-03
       H  5.71627e-01 -1.35264e+00  3.56840e-01
       H  1.65501e-01 -3.21771e-01  6.25357e-01
       H  5.86654e-01  1.32988e+00 -1.50629e-01
       H -2.90003e-01  1.09912e+00 -8.69354e-01
       O  3.95199e-01  6.18051e-01  6.03674e-01
       O  2.04513e+00 -7.12458e-01 -4.04710e-01
       O -7.12303e-01  2.72135e+00 -5.48968e-01
       O -1.04448e+00 -3.06091e+00  2.16034e+00
13
# CELL(abcABC):  529.17722   529.17722   529.17722    90.00000    90.00000    90.00000  Step:         100  Bead:       0 forces{eV/ang}  cell{angstrom}
       H  2.47268e-01  6.33406e-01  2.86503e-01
       H -1.92828e-01 -6.87574e-01  1.14177e+00
       H  2.69017e-01  2.35240e-01 -7.16925e-01
       H -1.26516e+00 -1.74386e-01  4.77887e-01
       H -2.27405e-01  3.98735e-01  7.54390e-01
       H  2.73937e-01  1.80440e-01  8.59339e-01
       H  5.50322e-03 -4.06505e-03 -3.58120e-02
       H -1.09373e+00 -3.39181e-01 -6.33254e-01
       H -1.68136e-01 -1.04510e+00  6.79215e-01
       O -6.00288e-01  6.70313e-01 -6.19330e-02
       O  1.63702e+00 -2.55490e-01 -7.64185e-01
       O -2.87889e-01 -1.06269e+00 -1.21885e+00
       O  1.40270e+00  1.45036e+00 -7.68145e-01
13
# CELL(abcABC):  529.17722   529.17722   529.17722    90.00000    90.00000    90.00000  Step:         120  Bead:       0 forces{eV/ang}  cell{angstrom}
       H -3.71804e-01  1.25513e+00 -6.34694e-01
       H -1.29571e+00 -1.48555e+00  7.18210e-01
       H  8.98658e-01  1.57481e-01  1.15352e+00
       H  7.07829e-01  6.03681e-01  1.49658e+00
       H  4.87007e-01 -4.84936e-02 -6.57770e-01
       H  1.67063e-01 -2.24300e-01  2.18911e-01
       H  1.41635e-01 -5.45625e-02 -1.86495e-02
       H -4.11148e-01  6.71548e-01 -4.38113e-01
       H -5.01004e-01 -3.97791e-01 -5.10559e-01
       O -4.13644e-01 -2.67692e-01  4.77601e-01
       O -1.30303e+00 -7.92451e-01 -1.73343e+00
       O -2.56034e-01 -1.00133e-01 -7.57901e-03
       O  2.15018e+00  6.83139e-01 -6.40274e-02
13
# CELL(abcABC):  529.17722   529.17722   529.17722    90.00000    90.00000    90.00000  Step:         140  Bead:       0 forces{eV/ang}  cell{angstrom}
       H  2.46025e-01 -1.28074e-01  4.62900e-01
       H  5.86732e-01  6.69530e-01  9.17937e-01
       H  4.28294e-01 -8.34112e-01 -7.95632e-01
       H -9.19923e-01 -2.21526e-01  3.34062e-01
       H  3.67970e-02 -2.33813e-01  2.87270e-01
       H -3.07558e-01  7.16873e-01 -2.06155e-01
       H -1.10161e-01  1.82981e-01 -5.70366e-01
       H -1.97799e-02  1.33503e-01 -8.62227e-01
       H -4.15303e-01 -3.26828e-01  6.10786e-01
       O  4.13978e-02 -7.62799e-01  5.28887e-01
       O  3.48166e-02  9.89873e-01  2.31557e-03
       O  1.52331e-01 -1.63358e-01  4.66076e-01
       O  2.46331e-01 -2.22502e-02 -1.17585e+00
13
# CELL(abcABC):  529.17722   529.17722   529.17722    90.00000    90.00000    90.00000  Step:         160  Bead:       0 forces{eV/ang}  cell{angstrom}
       H  5.91501e-01 -1.19322e+00  3.93177e-01
       H -7.74797e-01  2.21149e-01 -9.96806e-01
       H -3.59490e-01  8.58674e-01  6.22957e-01
       H  1.40629e-01 -1.74652e-02 -1.73564e-01
       H -5.52130e-01 -1.49899e-01 -1.91427e-01
       H  1.10977e-01 -6.38127e-01 -9.31980e-01
       H  2.47576e-01 -1.19312e+00  1.57779e-01
       H  5.25353e-03  1.14701e-01  3.87069e-02
       H -1.57830e-01 -7.96497e-03 -7.23459e-01
       O  8.57914e-01 -7.74113e-01  2.89589e-01
       O -4.24393e-01 -1.11255e-01 -1.42729e-01
       O -6.18759e-01  2.80909e+00  6.54037e-01
       O  9.33550e-01  8.15532e-02  1.00372e+00
13
# CELL(abcABC):  529.17722   529.17722   529.17722    90.00000    90.00000    90.00000  Step:         180  Bead:       0 forces{eV/ang}  cell{angstrom}
       H -4.48733e-02 -6.43925e-01 -4.48722e-01
       H  9.65583e-01 -3.70145e-01  8.42664e-01
       H -2.09708e+00  3.91277e-01 -5.53683e-01
       H  4.24702e-01  4.48877e-01 -9.50657e-01
       H  4.71370e-02 -7.04265e-02 -5.78267e-01
       H -1.60613e-02  2.50145e-01  2.93994e-01
       H -3.04528e-02  2.10393e-01 -9.76819e-01
       H  6.53733e-01  2.28694e-01  1.01028e+00
       H  3.89734e-01  1.31850e-01 -1.44814e-01
       O -1.86127e-01  5.04757e-01 -5.53233e-01
       O  1.54508e+00 -8.07057e-01  1.97566e+00
       O  1.31833e-02  1.13478e-01  1.01254e+00
       O -1.66456e+00 -3.87918e-01 -9.28948e-01
13
# CELL(abcABC):  529.17722   529.17722   529.17722    90.00000    90.00000    90.00000  Step:         200  Bead:       0 forces{eV/ang}  cell{angstrom}
       H -2.60762e-01  2.28256e-01  5.23109e-01
       H -9.26745e-01  1.15895e-02  1.10122e-01
       H  4.37444e-01 -5.20420e-01  9.24185e-02
       H  7.31179e-01  4.80156e-01 -1.07586e+00
       H -4.79020e-01 -1.06088e-01 -1.71497e-01
       H  4.39435e-02 -2.45300e-01  1.03227e-01
       H  2.30394e-01 -5.30223e-01  3.00085e-01
       H  2.67261e-01  3.55342e-01  1.44779e+00
       H  9.82036e-01  2.54937e-01 -2.87260e-01
       O -1.26846e-01  1.07636e+00 -3.68426e-01
       O -2.59268e-01 -2.54465e-02  1.07328e+00
       O  8.56668e-02 -3.90079e-01 -8.24479e-01
       O -7.25281e-01 -5.89082e-01 -9.22509e-01
13
# CELL(abcABC):  529.17722   529.17722   529.17722    90.00000    90.00000    90.00000  Step:         220  Bead:       0 forces{eV/ang}  cell{angstrom}
       H -2.24736e-01  1.15602e+00 -1.06371e+00
       H  2.20094e-01  2.26597e-01  6.19252e-01
       H  6.64494e-01  2.68250e-01  1.84184e-01
       H  6.44453e-01  4.79309e-01 -4.66771e-01
       H  1.11665e-01  4.82746e-02 -2.89363e-02
       H  2.32566e-01  1.11493e-01  7.69479e-01
       H  6.09118e-02  7.20066e-01 -2.08717e-01
       H  2.01344e-01 -4.09929e-02 -2.19412e-02
       H  1.00535e+00 -3.69528e-01  4.32457e-01
       O -6.90716e-01  6.15500e-01 -1.74321e-01
       O -8.98770e-01 -6.61666e-01  4.15191e-01
       O  2.46792e-01 -2.67195e+00  1.82769e-01
       O -1.57345e+00  1.18632e-01 -6.38936e-01
13
# CELL(abcABC):  529.17722   529.17722   529.17722    90.00000    90.00000    90.00000  Step:         240  Bead:       0 forces{eV/ang}  cell{angstrom}
       H -5.67897e-02  2.85630e-01  4.51797e-01
       H -8.50046e-01 -8.21757e-01  8.15150e-01
       H -1.86039e+00  4.14431e-01 -6.98427e-02
       H  8.17149e-02 -2.37221e-02  1.29204e-01
       H  5.78934e-01 -3.41158e-01  5.93700e-01
       H -2.45068e-01 -1.12324e-01  5.19273e-01
       H  2.63655e-01  2.00853e-01  4.28020e-01
       H  4.77375e-02 -4.82934e-01 -7.48213e-01
       H  4.48913e-01 -2.28028e-01  2.42175e-01
       O -1.09099e-01  7.03512e-01  5.17450e-02
       O  1.59395e+00 -1.78997e-01 -7.89052e-01
       O  1.45239e-01 -5.07512e-01 -1.46388e+00
       O -3.87545e-02  1.09201e+00 -1.60081e-01
13
# CELL(abcABC):  529.17722   529.17722   529.17722    90.00000    90.00000    90.00000  Step:         260  Bead:       0 forces{eV/ang}  cell{angstrom}
       H -7.52152e-03 -9.78993e-01  1.75037e-03
       H -8.17849e-02  3.64798e-01 -5.18429e-01
       H -3.31743e-01 -7.54703e-01  4.01393e-01
       H -6.54867e-01 -1.58448e-01 -1.37589e-01
       H -3.49261e-01 -7.79316e-01  8.20302e-01
       H -9.49367e-02 -2.81287e-01  1.00121e-01
       H  3.09780e-01  7.93563e-01  6.26185e-01
       H  3.50163e-01 -6.46942e-01 -1.72924e+00
       H -2.93202e-01 -1.54065e-01 -2.40808e-01
       O  6.96595e-01 -1.73817e-01  1.06332e+00
       O  2.26730e-01  1.69413e+00 -1.07321e+00
       O -8.73614e-02  2.90087e-01 -5.99982e-01
       O  3.17409e-01  7.84992e-01  1.28619e+00
13
# CELL(abcABC):  529.17722   529.17722   529.17722    90.00000    90.00000    90.00000  Step:         280  Bead:       0 forces{eV/ang}  cell{angstrom}
       H  1.49986e-01  1.01804e+00  1.02440e-02
       H -9.97525e-02 -3.38081e-02  7.30999e-01
       H  7.14374e-01  9.67171e-01 -3.87699e-01
       H -6.58060e-01 -1.02241e+00  5.02280e-01
       H  1.28537e+00 -4.39793e-01  5.44909e-01
       H  4.42786e-02  3.56679e-01 -2.65720e-01
       H  4.54371e-01  6.84160e-01  2.50899e-01
       H -6.83108e-01 -9.53282e-01 -1.88451e+00
       H -2.75548e-02  2.17144e-02  3.04081e-01
       O  7.89930e-01 -1.13492e+00 -8.33174e-01
       O -1.81642e+00  8.45084e-01 -6.29252e-01
       O -6.36504e-01 -1.00479e+00 -1.14231e-01
       O  4.83092e-01  6.96158e-01  1.77117e+00
13
# CELL(abcABC):  529.17722   529.17722   529.17722    90.00000    90.00000    90.00000  Step:         300  Bead:       0 forces{eV/ang}  cell{angstrom}
       H -4.61910e-01  1.27652e+00 -5.37086e-01
       H -7.14689e-01 -7.71677e-01  4.18375e-01
       H  6.08691e-01 -1.25309e+00  2.10475e-01
       H -2.11820e-01 -8.32362e-01 -4.57351e-01
       H -4.68370e-01 -4.94534e-01  2.41212e-01
       H -1.40811e-01  4.87140e-02 -5.12157e-01
       H  2.80191e-01  5.83898e-01  3.16268e-01
       H -9.90222e-01 -7.16102e-01 -1.34688e+00
       H  1.49745e-01  7.20892e-02 -5.42873e-01
       O  8.53474e-01 -1.15280e+00 -4.78403e-01
       O -3.97854e-02  2.51646e+00  7.24538e-02
       O -8.08955e-02 -2.68340e-01  3.10906e-01
       O  1.21640e+00  9.91214e-01  2.30506e+00
13
# CELL(abcABC):  529.17722   529.17722   529.17722    90.00000    90.00000    90.00000  Step:         320  Bead:       0 forces{eV/ang}  cell{angstrom}
       H -2.64398e-01 -2.14958e-01  4.42936e-01
       H  2.54365e-01  8.31606e-01  1.05342e+00
       H  5.61792e-01  1.34935e+00 -6.46595e-01
       H -1.72616e-01 -4.21714e-01  2.51412e-01
       H  9.13070e-01  5.97099e-01 -2.17802e-01
       H -3.27757e-01  5.51481e-01 -8.16533e-01
       H  6.91250e-02  1.99411e-01 -2.29401e-01
       H -8.44205e-01 -6.26667e-01 -7.61345e-01
       H  5.73203e-01  7.88837e-01  4.17987e-01
       O -6.41332e-01 -9.35527e-01 -2.22940e-01
       O -3.30618e-01 -1.38416e+00  3.68126e-01
       O  1.37785e-01 -1.16086e-01  6.95837e-01
       O  7.15863e-02 -6.18677e-01 -3.35105e-01
13
# CELL(abcABC):  529.17722   529.17722   529.17722    90.00000    90.00000    90.00000  Step:         340  Bead:       0 forces{eV/ang}  cell{angstrom}
       H  1.22262e-01  1.37570e-01 -4.12819e-01
       H  2.05202e-01 -3.87994e-01 -1.45656e+00
       H -1.20936e-01 -1.06088e+00  4.29807e-01
       H  3.10378e-01  4.23552e-01  3.10044e-02
       H -8.04179e-01  8.10730e-01 -4.31759e-01
       H -3.01671e-01 -2.84806e-01 -4.17642e-01
       H  1.66146e-01 -5.41613e-01  3.27890e-01
       H -4.28215e-01  4.72650e-01 -2.36884e-01
       H  1.57880e-01  1.10441e+00 -8.40500e-01
       O -1.27671e+00  1.27478e+00  1.55774e-01
       O  1.53496e+00 -7.36744e-01  2.35186e-01
       O  2.70073e-01  2.76464e-02  4.26218e-01
       O  1.64807e-01 -1.23930e+00  2.19028e+00
13
# CELL(abcABC):  529.17722   529.17722   529.17722    90.00000    90.00000    90.00000  Step:         360  Bead:       0 forces{eV/ang}  cell{angstrom}
       H  1.15739e-01 -7.01138e-01  1.84739e-01
       H  5.49917e-01  7.94928e-01  6.76106e-02
       H -1.59885e+00  1.31405e+00  5.89459e-01
       H  2.99824e-01  3.64664e-01  4.66142e-01
       H  4.50027e-01  1.25122e+00 -2.33453e-02
       H  2.38647e-01  3.06812e-01  7.59918e-02
       H -5.17519e-01 -3.80800e-01 -4.47375e-01
       H  4.64918e-01  4.47531e-04  1.78523e-01
       H -3.94586e-01  4.14865e-01  1.28682e+00
       O -8.38779e-01  5.74432e-01  2.83481e-01
       O  9.28786e-01 -2.70443e+00 -7.37853e-01
       O  4.86869e-01 -8.42572e-02  4.27347e-01
       O -1.84997e-01 -1.15080e+00 -2.35154e+00
13
# CELL(abcABC):  529.17722   529.17722   529.17722    90.00000    90.00000    90.00000  Step:         380  Bead:       0 forces{eV/ang}  cell{angstrom}
       H -8.60731e-02 -3.77299e-01  5.61228e-01
       H  2.91044e-01 -5.12624e-01 -1.52085e+00
       H -1.42690e-01 -6.38585e-01 -9.71361e-01
       H  2.17745e-01  3.10874e-01  1.49818e-01
       H -4.23625e-01  7.29469e-01 -1.15676e-01
       H  1.04934e-01 -9.06915e-01  6.29993e-01
       H -1.35284e-01 -8.49506e-01  4.88324e-01
       H  4.07372e-01  5.33368e-01  1.14391e+00
       H  1.52612e-01  2.81359e-01 -6.51368e-01
       O  1.11675e+00  9.54899e-01  1.08805e-01
       O -7.26063e-01 -2.78966e-01  4.58980e-01
       O  3.15479e-01  1.30811e+00 -1.15823e+00
       O -1.09220e+00 -5.54188e-01  8.76420e-01
13
# CELL(abcABC):  529.17722   529.17722   529.17722    90.00000    90.00000    90.00000  Step:         400  Bead:       0 forces{eV/ang}  cell{angstrom}
       H -1.20825e-01  7.73631e-01 -2.84284e-01
       H  4.49160e-01  9.81497e-01  1.81844e-01
       H -6.22174e-01  6.23510e-01  9.34123e-01
       H -2.04325e-01  1.55284e-01  1.13545e-01
       H  6.04759e-01 -2.49241e-02 -1.30266e-02
       H  1.01569e+00  3.17019e-01  7.21655e-01
       H -7.32606e-01 -8.37253e-02 -5.22367e-01
       H  6.30460e-01  4.25176e-01  1.22794e+00
       H -4.92926e-01 -7.12956e-01  5.63862e-01
       O  6.52372e-01 -1.18302e+00 -5.51284e-02
       O -4.48722e-01 -7.59764e-01 -6.44274e-01
       O -4.48622e-01 -9.89028e-02 -1.21250e-01
       O -2.82239e-01 -4.12820e-01 -2.10264e+00
13
# CELL(abcABC):  529.17722   529.17722   529.17722    90.00000    90.00000    90.00000  Step:         420  Bead:       0 forces{eV/ang}  cell{angstrom}
       H -5.96653e-02  1.32962e+00 -1.11951e+00
       H -7.45709e-02 -6.60235e-01  2.21950e-01
       H -1.76938e-01 -6.02629e-01 -4.51812e-01
       H  3.99064e-01 -2.00053e-01 -2.51959e-01
       H -3.64673e-01 -9.01259e-02 -1.46918e-02
       H  2.57409e-01 -5.53243e-01  1.01497e+00
       H -1.39662e-01 -4.26352e-01  4.87383e-01
       H  3.36825e-01  4.77382e-01  8.33605e-01
       H -9.04275e-01 -1.36366e+00  4.49516e-01
       O  6.61051e-01 -7.62492e-01  1.55348e-01
       O -2.99047e-01  9.08722e-01  8.00681e-01
       O -3.14629e-01  8.67088e-01 -1.11005e+00
       O  6.79112e-01  1.07598e+00 -1.01543e+00
13
# CELL(abcABC):  529.17722   529.17722   529.17722    90.00000    90.00000    90.00000  Step:         440  Bead:       0 forces{eV/ang}  cell{angstrom}
       H -1.82913e-02 -1.13584e-01  7.72900e-01
       H -6.24929e-01 -2.99465e-01  1.41688e+00
       H  7.06054e-01  6.11800e-01  1.51470e-01
       H -3.08472e-01 -1.32399e-01 -4.75771e-01
       H  1.51819e-01 -2.34519e-01 -1.34361e-01
       H  7.92665e-01  8.72486e-01  4.49657e-01
       H -6.89614e-01  4.23378e-01 -3.97212e-01
       H  6.61628e-02  1.79356e-01  4.88320e-01
       H -1.43169e+00 -1.25144e+00  1.13504e+00
       O  8.21372e-01 -1.93205e-01 -1.49061e+00
       O -7.76220e-01  9.83494e-02  5.26595e-01
       O -1.06722e-01 -1.05456e+00 -7.73252e-01
       O  1.41787e+00  1.09380e+00 -1.66966e+00
13
# CELL(abcABC):  529.17722   529.17722   529.17722    90.00000    90.00000    90.00000  Step:         460  Bead:       0 forces{eV/ang}  cell{angstrom}
       H -2.47767e-02  1.52234e-01 -5.51436e-01
       H  3.35125e-01  7.92456e-01 -6.17807e-01
       H  7.84443e-01  2.37552e-04 -6.31457e-01
       H -2.65738e-01 -3.07141e-01 -8.58639e-01
       H  2.67836e-01 -4.98142e-01 -2.76993e-01
       H -1.36088e-01 -9.02073e-01  5.48991e-01
       H  5.84588e-01 -4.57340e-01  5.55570e-01
       H -1.40458e-01 -1.51695e-01  7.05986e-02
       H -1.19155e+00 -6.86983e-01  5.66283e-01
       O -7.85616e-01  1.16817e-01  8.95555e-01
       O -4.51575e-01  7.55767e-01  1.50353e+00
       O -2.95076e-01  5.47113e-01 -5.52115e-01
       O  1.31889e+00  6.38748e-01 -6.52082e-01
13
# CELL(abcABC):  529.17722   529.17722   529.17722    90.00000    90.00000    90.00000  Step:         480  Bead:       0 forces{eV/ang}  cell{angstrom}
       H  3.09752e-01 -4.48966e-01  1.38808e-01
       H -1.45328e-01 -1.01720e+00  2.42089e-01
       H -1.34565e+00  2.40574e-01  5.54564e-01
       H -8.60550e-01  3.54631e-01 -8.39266e-02
       H -2.20000e-01 -4.45939e-02 -4.18413e-01
       H -1.04019e-01  7.08762e-01 -3.84307e-01
       H -9.71099e-02  5.68864e-01 -3.57501e-01
       H  9.60798e-02 -2.75307e-01 -2.01046e-01
       H -8.21082e-02 -1.79799e-01 -3.80267e-01
       O -5.71886e-02  1.95142e-01 -2.89260e-01
       O  2.74826e+00 -7.78856e-01  6.46711e-02
       O -3.15362e-01 -2.40189e-01  3.38162e-01
       O  7.32233e-02  9.16934e-01  7.76427e-01
13
# CELL(abcABC):  529.17722   529.17722   529.17722    90.00000    90.00000    90.00000  Step:         500  Bead:       0 forces{eV/ang}  cell{angstrom}
       H -3.56882e-01  9.10276e-02  1.83964e-01
       H  4.78096e-01  7.63318e-01 -1.20133e-01
       H  7.88344e-01 -6.57104e-01 -4.88345e-01
       H  3.22503e-01 -3.30429e-01 -7.26047e-01
       H  4.28369e-01 -1.20169e-01  6.44520e-01
       H -1.54114e+00 -3.13954e-01 -1.47198e-01
       H  9.44253e-01  4.05019e-01 -8.58942e-03
       H -2.38092e-01 -1.44006e-01 -3.66730e-01
       H  8.91515e-01  4.41449e-01  8.04061e-01
       O -8.30017e-01  1.15303e+00  5.56301e-02
       O -1.21365e+00  8.92790e-01  3.92555e-01
       O  1.38631e+00 -1.52413e+00  5.21395e-01
       O -1.05961e+00 -6.56841e-01 -7.45083e-01
13
# CELL(abcABC):  529.17722   529.17722   529.17722    90.00000    90.00000    90.00000  Step:         520  Bead:       0 forces{eV/ang}  cell{angstrom}
       H  9.55649e-01 -1.60593e+00  6.08160e-01
       H -1.00086e+00 -1.27739e-01  8.25209e-01
       H  1.26560e+00  3.12615e-01 -5.57398e-01
       H -3.94727e-01  2.67481e-01  4.79640e-01
       H -7.36457e-01  6.12092e-01  4.19270e-01
       H -1.96136e+00  8.84441e-01 -4.28093e-02
       H  5.40735e-01  9.86724e-01 -5.02338e-02
       H  2.31857e-01 -4.81806e-02 -3.93636e-01
       H  2.02366e+00  3.56274e-01  2.38850e-01
       O  8.15869e-01 -2.90544e-01 -2.13540e-01
       O -1.81116e-01 -9.60367e-01 -7.28218e-01
       O  4.39678e-01 -1.18823e-01 -6.12013e-01
       O -1.99852e+00 -2.68042e-01  2.67190e-02
13
# CELL(abcABC):  529.17722   529.17722   529.17722    90.00000    90.00000    90.00000  Step:         540  Bead:       0 forces{eV/ang}  cell{angstrom}
       H -7.23435e-01  6.35849e-01 -2.27237e-01
       H  5.99075e-01 -1.64124e-03 -2.39628e-01
       H -5.59034e-01  3.72917e-01  4.79031e-01
       H  3.65106e-01 -3.09067e-01 -3.34287e-01
       H  3.88496e-01 -9.53872e-02  1.23975e+00
       H -2.06760e+00  6.17125e-02  5.03765e-01
       H  1.13096e+00  7.19407e-01 -8.58456e-02
       H -1.12481e-01 -5.35938e-02 -5.87763e-01
       H  1.72933e+00  3.00418e-01  1.22897e+00
       O -6.75248e-05  4.77129e-01  1.14283e-01
       O -2.13007e-01  5.10395e-02 -1.24667e+00
       O  1.56475e+00 -1.72049e+00 -1.29261e-01
       O -2.10209e+00 -4.38291e-01 -7.15103e-01
13
# CELL(abcABC):  529.17722   529.17722   529.17722    90.00000    90.00000    90.00000  Step:         560  Bead:       0 forces{eV/ang}  cell{angstrom}
       H  1.10422e-01  5.53319e-01 -5.72550e-01
       H  3.97613e-01  1.24383e-01 -4.61324e-01
       H -5.51837e-01 -6.62903e-01 -1.19591e-01
       H -5.69702e-01  4.24471e-01  6.31974e-01
       H -1.14194e+00  1.03846e+00  5.11287e-01
       H -1.19146e+00  1.07180e+00  4.38710e-01
       H  1.96469e-01  7.78868e-01  2.26135e-01
       H -9.57529e-02 -4.13954e-01 -7.09628e-01
       H  1.23938e+00  7.61039e-02 -5.20605e-02
       O  1.21556e+00 -4.19445e-01 -8.48346e-02
       O  9.75617e-01 -7.44713e-01 -7.30207e-01
       O  6.89004e-01 -1.95760e+00 -3.40190e-01
       O -1.27338e+00  1.31212e-01  1.26228e+00
13
# CELL(abcABC):  529.17722   529.17722   529.17722    90.00000    90.00000    90.00000  Step:         580  Bead:       0 forces{eV/ang}  cell{angstrom}
       H -5.73936e-01 -2.83932e-01  5.30073e-01
       H -3.80042e-01  5.98414e-02 -3.08605e-01
       H  6.17469e-01 -8.12630e-02  1.66497e-01
       H  4.80522e-01 -5.15491e-02 -8.16347e-01
       H  1.82184e-01 -6.60448e-01  1.05928e+00
       H -4.99540e-01 -6.08850e-01 -3.79973e-02
       H  4.43140e-01  8.84049e-02 -4.66805e-01
       H -5.89808e-01 -6.42121e-01 -3.38920e-01
       H -7.58405e-02  1.59037e-02 -2.11779e-01
       O  6.27448e-01 -7.30247e-01 -1.23723e-01
       O -1.61699e+00  8.88094e-01 -2.61461e-01
       O  3.03980e-01  1.24917e+00  1.04307e-01
       O  1.08142e+00  7.56998e-01  7.05485e-01
13
# CELL(abcABC):  529.17722   529.17722   529.17722    90.00000    90.00000    90.00000  Step:         600  Bead:       0 forces{eV/ang}  cell{angstrom}
       H  6.46154e-01  4.26186e-01 -4.15734e-01
       H  5.70171e-01 -1.14423e-01  5.36936e-01
       H  5.84935e-01  3.23158e-01 -1.41935e-01
       H -4.63195e-01  6.40408e-01  4.12281e-01
       H -4.98588e-01  6.47859e-01  1.12999e-01
       H  7.68141e-01  4.04273e-01 -4.16030e-01
       H -5.79803e-01 -1.57176e-02  1.77970e-01
       H -4.22357e-01 -3.27146e-01 -2.68909e-01
       H -1.29687e+00 -1.24476e-01  4.31264e-01
       O -7.21206e-01 -9.02020e-01  8.81080e-01
       O  6.13478e-01 -1.53122e+00 -3.78769e-01
       O -1.01978e+00  8.92383e-02  1.42228e-01
       O  1.81892e+00  4.83882e-01 -1.07338e+00
13
# CELL(abcABC):  529.17722   529.17722   529.17722    90.00000    90.00000    90.00000  Step:         620  Bead:       0 forces{eV/ang}  cell{angstrom}
       H -3.48638e-01  4.20718e-01  2.44718e-02
       H -6.25498e-01  2.83896e-01 -6.27548e-01
       H -6.58649e-01 -2.25335e-01  5.53993e-01
       H -1.51301e-01  2.03835e-01 -2.68652e-01
       H  6.46057e-01 -1.71831e-01 -7.62999e-01
       H  5.91266e-01 -9.10148e-01  1.55270e-01
       H -4.33946e-01 -4.09388e-01  1.97379e-02
       H  2.38983e-01  3.69376e-02  1.91650e-01
       H -1.68460e+00 -3.90868e-01 -1.29281e-02
       O -1.07432e+00  5.53635e-01  3.40409e-01
       O  1.10922e+00 -3.80295e-01  5.01904e-01
       O  3.55918e-01  6.21431e-01 -1.04611e-02
       O  2.03551e+00  3.67414e-01 -1.04847e-01
13
# CELL(abcABC):  529.17722   529.17722   529.17722    90.00000    90.00000    90.00000  Step:         640  Bead:       0 forces{eV/ang}  cell{angstrom}
       H  3.37170e-01 -1.13866e+00  9.57853e-01
       H  1.06862e+00  4.63171e-02 -1.48818e-01
       H  4.02549e-01 -2.74395e-01 -1.00204e+00
       H  3.20075e-02 -5.04948e-02 -7.19745e-02
       H  6.70873e-01  6.60709e-01 -1.80005e+00
       H  8.08795e-01 -6.31038e-01 -2.71516e-02
       H -4.79377e-01 -4.57424e-01  2.30783e-01
       H  3.15797e-01  6.18171e-01  1.06624e+00
       H -1.53359e+00 -3.41254e-01  6.52809e-01
       O -6.02996e-01  3.62792e-01  2.59386e-01
       O -4.45068e-01 -7.45494e-01  2.38798e+00
       O -7.99154e-01  2.37267e+00 -1.25523e+00
       O  2.24372e-01 -4.21899e-01 -1.24979e+00
13
# CELL(abcABC):  529.17722   529.17722   529.17722    90.00000    90.00000    90.00000  Step:         660  Bead:       0 forces{eV/ang}  cell{angstrom}
       H  2.48739e-01 -1.67596e-01 -9.41523e-02
       H -9.66636e-01 -1.27630e-01  2.37143e-01
       H  3.85250e-01 -3.87666e-02  6.24442e-01
       H  5.25930e-02 -5.59295e-01  3.20453e-02
       H  9.57743e-01  4.64594e-01 -1.11935e+00
       H  7.87124e-01 -3.67953e-01 -2.95772e-01
       H -2.16256e-01 -6.83133e-01  4.66329e-01
       H  7.12019e-01  8.11099e-01  2.03092e+00
       H -1.81949e-01 -1.12515e-01 -4.45342e-01
       O  4.83102e-01  5.74517e-01 -1.57581e+00
       O -1.28377e+00  2.18936e-01  5.99576e-01
       O -5.88342e-01  6.75282e-01  1.98090e-01
       O -3.89621e-01 -6.87540e-01 -6.58119e-01
13
# CELL(abcABC):  529.17722   529.17722   529.17722    90.00000    90.00000    90.00000  Step:         680  Bead:       0 forces{eV/ang}  cell{angstrom}
       H -9.54692e-01  7.78415e-01 -3.95935e-01
       H  4.86881e-01  3.69367e-01  6.34874e-01
       H -1.83284e-01  5.45873e-01  9.73855e-02
       H  2.02917e-01 -8.97888e-01  1.38745e-02
       H  1.53035e-01  3.16128e-01 -2.74651e-01
       H  8.39026e-01  6.99805e-02 -5.50128e-01
       H -4.54719e-01 -3.12736e-01  4.51449e-01
       H -1.95721e-01  5.34394e-01  1.34457e+00
       H  6.14966e-01  4.61063e-01  1.44828e+00
       O  5.89368e-01  1.53092e-01 -1.33615e+00
       O -4.28714e-01  1.84208e-01  3.78782e-01
       O  3.85551e-01 -7.44587e-01  7.65821e-01
       O -1.05461e+00 -1.45731e+00 -2.57818e+00
13
# CELL(abcABC):  529.17722   529.17722   529.17722    90.00000    90.00000    90.00000  Step:         700  Bead:       0 forces{eV/ang}  cell{angstrom}
       H  2.31331e-02  7.10332e-01 -4.44495e-01
       H  2.18314e-01 -5.29919e-01 -2.10414e-01
       H -7.74555e-01 -5.45734e-01 -1.30955e-02
       H -4.39674e-01 -7.20191e-01  9.59329e-02
       H -2.15600e-01 -2.22308e-01  2.23159e-01
       H  4.11084e-01 -1.03649e-01 -4.04821e-01
       H  1.21924e-02 -4.27379e-01  2.53213e-01
       H  6.98475e-01  3.23622e-01 -1.18253e-01
       H  1.18654e+00  1.09151e-01 -6.14252e-01
       O  3.92924e-01  4.34532e-02  4.05642e-01
       O  8.39383e-01  1.63699e+00 -2.35456e-01
       O -5.32668e-01 -5.53847e-02  6.15026e-01
       O -1.81955e+00 -2.18986e-01  4.47813e-01
13
# CELL(abcABC):  529.17722   529.17722   529.17722    90.00000    90.00000    90.00000  Step:         720  Bead:       0 forces{eV/ang}  cell{angstrom}
       H -2.66551e-02 -8.21069e-01  9.64783e-01
       H -6.21365e-01 -1.54306e-01 -3.80355e-01
       H  4.65541e-01  4.52765e-01 -1.12691e-01
       H  7.22588e-01 -9.79296e-01 -2.54233e-01
       H -8.61078e-01 -6.29407e-01  1.82592e-01
       H -6.98759e-02 -2.96203e-01  3.05743e-01
       H -8.81001e-02 -9.59481e-02 -6.89019e-02
       H -7.39351e-01 -1.07171e+00 -2.70491e-01
       H  3.34656e-01  5.09673e-01  1.16673e-01
       O  7.84655e-02 -4.62784e-01  1.41360e+00
       O -2.52753e-01  1.10619e+00  1.58768e-01
       O -5.14069e-02  1.40944e+00 -1.22352e+00
       O  1.10933e+00  1.03266e+00 -8.31967e-01
13
# CELL(abcABC):  529.17722   529.17722   529.17722    90.00000    90.00000    90.00000  Step:         740  Bead:       0 forces{eV/ang}  cell{angstrom}
       H  2.84045e-01  3.27797e-01 -1.01184e+00
       H  3.61867e-01  5.00936e-01  6.63067e-01
       H  6.12949e-01 -8.13042e-01 -9.85473e-02
       H -4.80986e-01 -2.96885e-01 -3.36578e-02
       H -1.30329e+00  8.12836e-02  1.62390e-02
       H -1.83431e-01  4.65476e-01 -7.83653e-02
       H  1.64717e-01  4.48648e-01 -1.88709e-01
       H -1.23249e-01 -1.24227e+00 -1.44336e+00
       H -4.02273e-01 -5.91416e-01 -1.39236e-01
       O  3.13903e-01 -8.87150e-01  2.56344e-01
       O  1.31549e-01  1.64572e+00  1.54680e-01
       O  5.86316e-02 -1.38036e+00  1.04465e+00
       O  5.65568e-01  1.74126e+00  8.58730e-01
13
# CELL(abcABC):  529.17722   529.17722   529.17722    90.00000    90.00000    90.00000  Step:         760  Bead:       0 forces{eV/ang}  cell{angstrom}
       H -4.22412e-01  6.86600e-01  1.04635e-02
       H  2.18868e-01 -2.84598e-01 -5.18941e-01
       H -1.07309e+00  7.37514e-01  5.33338e-01
       H  4.75080e-01  6.69684e-02  1.55490e-01
       H -7.61112e-01 -8.85816e-01 -3.74252e-01