13
Lattice="529.1772105638412 0.0 0.0 0.0 529.1772105638412 0.0 0.0 0.0 529.1772105638412" Properties=species:S:1:pos:R:3:forces_component_raw:R:3 ipi_comment="Step:           0  Bead:       0 forces_component_raw{ase}  cell{ase}" pbc="T T T"
H        0.00000000       0.00000000       0.00000000      -0.45802528       2.28203801       0.34064519
H        0.00000000       0.00000000       0.00000000      -0.35287334      -0.30454521       0.93150715
H        0.00000000       0.00000000       0.00000000       2.72721142      -0.24538065       0.26846432
H        0.00000000       0.00000000       0.00000000       0.81285762      -0.28436008       0.46383096
H        0.00000000       0.00000000       0.00000000       0.88987747      -0.03785125       0.35537518
H        0.00000000       0.00000000       0.00000000      -0.08371710       0.76527200      -0.81832142
H        0.00000000       0.00000000       0.00000000       0.09014717      -0.45523580      -0.41725101
H        0.00000000       0.00000000       0.00000000      -0.07118229      -0.00854406      -0.10519228
H        0.00000000       0.00000000       0.00000000      -0.46627527      -0.21436323      -0.03937154
O        0.00000000       0.00000000       0.00000000      -2.02648026      -1.84686314      -1.21538574
O        0.00000000       0.00000000       0.00000000      -1.53767504       0.21452856      -0.63496857
O        0.00000000       0.00000000       0.00000000      -0.21936171      -0.31039289       1.03889743
O        0.00000000       0.00000000       0.00000000       0.69549660       0.44569774      -0.16822966
13
Lattice="529.1772105638412 0.0 0.0 0.0 529.1772105638412 0.0 0.0 0.0 529.1772105638412" Properties=species:S:1:pos:R:3:forces_component_raw:R:3 ipi_comment="Step:          20  Bead:       0 forces_component_raw{ase}  cell{ase}" pbc="T T T"
H        0.00000000       0.00000000       0.00000000      -0.39965910      -4.02005415       0.13567544
H        0.00000000       0.00000000       0.00000000       0.28138993       0.44335012       0.37261381
H        0.00000000       0.00000000       0.00000000      -5.86141272      -0.58620223       0.96712541
H        0.00000000       0.00000000       0.00000000      -0.61947111      -1.08737255      -0.14614493
H        0.00000000       0.00000000       0.00000000      -1.26391001      -0.25312222      -0.42351064
H        0.00000000       0.00000000       0.00000000      -0.18850810       0.31989618      -0.78141428
H        0.00000000       0.00000000       0.00000000       0.13651539      -0.47380964      -0.83103462
H        0.00000000       0.00000000       0.00000000       0.65530180      -0.28931203       1.54206579
H        0.00000000       0.00000000       0.00000000      -0.34284592      -0.13005178      -0.18223179
O        0.00000000       0.00000000       0.00000000      -0.38916757      -1.13350045       0.53099267
O        0.00000000       0.00000000       0.00000000       6.98127301       1.63389937      -0.11816877
O        0.00000000       0.00000000       0.00000000       0.35979159       4.29715306       1.57947408
O        0.00000000       0.00000000       0.00000000       0.65070282       1.27912634      -2.64544216
13
Lattice="529.1772105638412 0.0 0.0 0.0 529.1772105638412 0.0 0.0 0.0 529.1772105638412" Properties=species:S:1:pos:R:3:forces_component_raw:R:3 ipi_comment="Step:          40  Bead:       0 forces_component_raw{ase}  cell{ase}" pbc="T T T"
H        0.00000000       0.00000000       0.00000000      -0.29330930       0.76865588       0.25519432
H        0.00000000       0.00000000       0.00000000      -0.38386004      -0.45609549      -0.01845131
H        0.00000000       0.00000000       0.00000000       1.05434157      -0.45267170      -0.14873429
H        0.00000000       0.00000000       0.00000000       0.87886302      -0.19518702       0.12006854
H        0.00000000       0.00000000       0.00000000      -0.11411803      -1.22549145      -0.21740695
H        0.00000000       0.00000000       0.00000000      -0.02978663      -0.15947897       0.00626131
H        0.00000000       0.00000000       0.00000000       0.07021774      -0.40923076      -0.17958239
H        0.00000000       0.00000000       0.00000000       0.41113973      -0.46750463       1.23636682
H        0.00000000       0.00000000       0.00000000      -0.38607879      -0.19309972       0.02155270
O        0.00000000       0.00000000       0.00000000      -0.36548922       0.05924541       0.42080558
O        0.00000000       0.00000000       0.00000000      -1.18001764       1.41378266       0.21256282
O        0.00000000       0.00000000       0.00000000      -0.14764442      -0.04085304       0.07621792
O        0.00000000       0.00000000       0.00000000       0.48574200       1.35792881      -1.78485510
13
Lattice="529.1772105638412 0.0 0.0 0.0 529.1772105638412 0.0 0.0 0.0 529.1772105638412" Properties=species:S:1:pos:R:3:forces_component_raw:R:3 ipi_comment="Step:          60  Bead:       0 forces_component_raw{ase}  cell{ase}" pbc="T T T"
H        0.00000000       0.00000000       0.00000000       0.24241058      -0.04553858       0.13979850
H        0.00000000       0.00000000       0.00000000       0.55574663      -0.69479471       0.05292421
H        0.00000000       0.00000000       0.00000000       2.99198823      -0.09030801       0.28313654
H        0.00000000       0.00000000       0.00000000      -0.28192181      -0.15846895      -0.00532385
H        0.00000000       0.00000000       0.00000000      -0.40342892       0.37948545       0.08019431
H        0.00000000       0.00000000       0.00000000      -0.26500411       0.36987723       0.83819990
H        0.00000000       0.00000000       0.00000000      -0.26072188       0.68037352      -0.28232195
H        0.00000000       0.00000000       0.00000000      -0.39646091      -0.46657176       0.42664018
H        0.00000000       0.00000000       0.00000000      -0.13649071      -0.50826995       0.61253487
O        0.00000000       0.00000000       0.00000000      -3.11517830       0.93988834      -0.44633589
O        0.00000000       0.00000000       0.00000000       0.62099639      -0.22973124      -0.14248648
O        0.00000000       0.00000000       0.00000000       0.39900602      -1.25684421      -0.70987743
O        0.00000000       0.00000000       0.00000000       0.04905879       1.08090285      -0.84708291
13
Lattice="529.1772105638412 0.0 0.0 0.0 529.1772105638412 0.0 0.0 0.0 529.1772105638412" Properties=species:S:1:pos:R:3:forces_component_raw:R:3 ipi_comment="Step:          80  Bead:       0 forces_component_raw{ase}  cell{ase}" pbc="T T T"
H        0.00000000       0.00000000       0.00000000      -0.36625012      -0.24936611      -0.16059906
H        0.00000000       0.00000000       0.00000000      -0.12415236       1.04149879      -0.91463782
H        0.00000000       0.00000000       0.00000000      -2.83674720       0.02854785      -0.12355155
H        0.00000000       0.00000000       0.00000000       0.14439373       1.15593690       0.06448545
H        0.00000000       0.00000000       0.00000000       0.55385691      -0.35119518      -0.33300560
H        0.00000000       0.00000000       0.00000000       0.23739689      -0.54299443       0.10423806
H        0.00000000       0.00000000       0.00000000      -0.40965057       0.20571109       0.98755867
H        0.00000000       0.00000000       0.00000000      -0.43868569       0.75402753      -0.89244521
H        0.00000000       0.00000000       0.00000000       0.24988546       0.38377969      -0.57640415
O        0.00000000       0.00000000       0.00000000       0.14957373       0.72489345      -0.25477970
O        0.00000000       0.00000000       0.00000000       2.54920322      -0.98805328       0.40704303
O        0.00000000       0.00000000       0.00000000       0.32921621      -0.36582201      -0.92572062
O        0.00000000       0.00000000       0.00000000      -0.03804020      -1.79696430       2.61781850
13
Lattice="529.1772105638412 0.0 0.0 0.0 529.1772105638412 0.0 0.0 0.0 529.1772105638412" Properties=species:S:1:pos:R:3:forces_component_raw:R:3 ipi_comment="Step:         100  Bead:       0 forces_component_raw{ase}  cell{ase}" pbc="T T T"
H        0.00000000       0.00000000       0.00000000       0.93461156       0.12188337       0.63199952
H        0.00000000       0.00000000       0.00000000       1.28463358       0.50097098      -0.26471632
H        0.00000000       0.00000000       0.00000000      -0.61768066       0.44115885      -0.34924580
H        0.00000000       0.00000000       0.00000000      -1.29961055       0.08507540       1.17237710
H        0.00000000       0.00000000       0.00000000      -0.38546712       1.35592223       0.27285934
H        0.00000000       0.00000000       0.00000000       0.27697579       0.15771595       0.61593855
H        0.00000000       0.00000000       0.00000000      -0.69609773       0.42037348       0.80859172
H        0.00000000       0.00000000       0.00000000      -1.36369930       1.06439702      -1.32653325
H        0.00000000       0.00000000       0.00000000       0.61903087       0.33426229       0.35918713
O        0.00000000       0.00000000       0.00000000      -0.35366368       1.16539369      -0.72848076
O        0.00000000       0.00000000       0.00000000       1.77272805      -1.57846146      -1.15370189
O        0.00000000       0.00000000       0.00000000       0.18702456      -2.07181896      -1.85358732
O        0.00000000       0.00000000       0.00000000      -0.35878538      -1.99687284       1.81531198
13
Lattice="529.1772105638412 0.0 0.0 0.0 529.1772105638412 0.0 0.0 0.0 529.1772105638412" Properties=species:S:1:pos:R:3:forces_component_raw:R:3 ipi_comment="Step:         120  Bead:       0 forces_component_raw{ase}  cell{ase}" pbc="T T T"
H        0.00000000       0.00000000       0.00000000      -0.20253981      -1.61125452      -0.26030915
H        0.00000000       0.00000000       0.00000000      -1.05176257      -0.88101825       0.06540806
H        0.00000000       0.00000000       0.00000000       0.60887068       0.04550747       0.05182950
H        0.00000000       0.00000000       0.00000000       0.04012520       2.13455211       0.05499473
H        0.00000000       0.00000000       0.00000000       1.55597729       0.21624596      -1.12164238
H        0.00000000       0.00000000       0.00000000      -0.02067147      -0.25083849       0.24673772
H        0.00000000       0.00000000       0.00000000      -0.49445377       0.48357260       0.41526674
H        0.00000000       0.00000000       0.00000000      -1.88677520       0.90998886      -0.56438084
H        0.00000000       0.00000000       0.00000000       0.79212393       0.38570506       0.33560848
O        0.00000000       0.00000000       0.00000000       0.91320536      -0.63511649       1.26512416
O        0.00000000       0.00000000       0.00000000      -2.61033565      -2.41907136       0.62977746
O        0.00000000       0.00000000       0.00000000       0.13734617       2.03377582      -0.38646799
O        0.00000000       0.00000000       0.00000000       2.21888984      -0.41204876      -0.73194649
13
Lattice="529.1772105638412 0.0 0.0 0.0 529.1772105638412 0.0 0.0 0.0 529.1772105638412" Properties=species:S:1:pos:R:3:forces_component_raw:R:3 ipi_comment="Step:         140  Bead:       0 forces_component_raw{ase}  cell{ase}" pbc="T T T"
H        0.00000000       0.00000000       0.00000000      -0.37472103       1.47551748      -0.03478953
H        0.00000000       0.00000000       0.00000000       0.19854994      -0.17377695       0.80358111
H        0.00000000       0.00000000       0.00000000      -0.09963105       0.61370301       0.04097898
H        0.00000000       0.00000000       0.00000000      -0.98639235      -0.24537796       0.68369361
H        0.00000000       0.00000000       0.00000000       0.47841333       2.18242628      -0.56248427
H        0.00000000       0.00000000       0.00000000      -0.04440857      -0.01618821       0.05846269
H        0.00000000       0.00000000       0.00000000      -0.13653671       0.19451556       0.08359511
H        0.00000000       0.00000000       0.00000000      -0.95955988       0.82152376      -0.59753567
H        0.00000000       0.00000000       0.00000000       0.96306179       0.20253486       1.11326888
O        0.00000000       0.00000000       0.00000000      -0.69954222      -1.52324643       0.46195334
O        0.00000000       0.00000000       0.00000000       1.12902831      -2.21850247      -0.05413451
O        0.00000000       0.00000000       0.00000000       0.36460642      -0.71534816      -0.00321584
O        0.00000000       0.00000000       0.00000000       0.16713203      -0.59778076      -1.99337389
13
Lattice="529.1772105638412 0.0 0.0 0.0 529.1772105638412 0.0 0.0 0.0 529.1772105638412" Properties=species:S:1:pos:R:3:forces_component_raw:R:3 ipi_comment="Step:         160  Bead:       0 forces_component_raw{ase}  cell{ase}" pbc="T T T"
H        0.00000000       0.00000000       0.00000000       0.03318571       0.23040145       0.35340939
H        0.00000000       0.00000000       0.00000000      -0.58211473       0.37855261      -0.50778473
H        0.00000000       0.00000000       0.00000000       0.17877464      -0.49697436      -0.43313981
H        0.00000000       0.00000000       0.00000000       1.02337712       0.31364740      -0.34397785
H        0.00000000       0.00000000       0.00000000       2.36799682       1.63386215      -0.81805528
H        0.00000000       0.00000000       0.00000000      -0.28912662       0.27567922      -0.38280746
H        0.00000000       0.00000000       0.00000000       0.06311680      -0.20665958      -0.13537045
H        0.00000000       0.00000000       0.00000000      -0.07236090       0.62492585      -0.34900399
H        0.00000000       0.00000000       0.00000000      -0.17067911       0.24856620      -0.46338294
O        0.00000000       0.00000000       0.00000000       0.27960408       0.13684500       1.04560895
O        0.00000000       0.00000000       0.00000000      -3.81055700      -1.72521954       1.20367938
O        0.00000000       0.00000000       0.00000000       0.14599994      -0.63802431       0.24251258
O        0.00000000       0.00000000       0.00000000       0.83278323      -0.77560210       0.58831220
13
Lattice="529.1772105638412 0.0 0.0 0.0 529.1772105638412 0.0 0.0 0.0 529.1772105638412" Properties=species:S:1:pos:R:3:forces_component_raw:R:3 ipi_comment="Step:         180  Bead:       0 forces_component_raw{ase}  cell{ase}" pbc="T T T"
H        0.00000000       0.00000000       0.00000000       0.22536033      -0.38556563      -0.56235056
H        0.00000000       0.00000000       0.00000000       1.15606619      -0.16551651       0.26971037
H        0.00000000       0.00000000       0.00000000       0.16888866       0.62015603       0.20299346
H        0.00000000       0.00000000       0.00000000       0.51270030      -2.28098491       0.44815744
H        0.00000000       0.00000000       0.00000000       0.57518747       1.87616136      -0.37018123
H        0.00000000       0.00000000       0.00000000      -0.96137646       0.52892020      -0.87370889
H        0.00000000       0.00000000       0.00000000      -0.04973971       0.15398958      -0.74957309
H        0.00000000       0.00000000       0.00000000      -0.12845577      -0.23728827       0.13014298
H        0.00000000       0.00000000       0.00000000      -0.43513865      -0.47781770       0.60733739
O        0.00000000       0.00000000       0.00000000      -0.53543255       0.23931380       0.30230171
O        0.00000000       0.00000000       0.00000000      -1.43036266       0.00909825      -0.16392642
O        0.00000000       0.00000000       0.00000000       1.03564960      -0.60647781       1.90790939
O        0.00000000       0.00000000       0.00000000      -0.13334674       0.72601162      -1.14881255
13
Lattice="529.1772105638412 0.0 0.0 0.0 529.1772105638412 0.0 0.0 0.0 529.1772105638412" Properties=species:S:1:pos:R:3:forces_component_raw:R:3 ipi_comment="Step:         200  Bead:       0 forces_component_raw{ase}  cell{ase}" pbc="T T T"
H        0.00000000       0.00000000       0.00000000       0.00915522      -1.30071558       0.72118140
H        0.00000000       0.00000000       0.00000000      -0.89882476       0.61635000      -1.03061299
H        0.00000000       0.00000000       0.00000000       0.19064646      -0.52556098       0.37779319
H        0.00000000       0.00000000       0.00000000       1.77208615      -1.64337893       0.86444157
H        0.00000000       0.00000000       0.00000000       0.78877789      -0.26979448       0.22184949
H        0.00000000       0.00000000       0.00000000      -0.17971630       0.05242308      -0.62598590
H        0.00000000       0.00000000       0.00000000       0.19654303      -0.11615220       0.55390057
H        0.00000000       0.00000000       0.00000000       0.69488004      -0.44378670       1.43928947
H        0.00000000       0.00000000       0.00000000      -1.38574423      -0.33044076      -0.20131337
O        0.00000000       0.00000000       0.00000000       1.52120034       1.14769960      -0.99287735
O        0.00000000       0.00000000       0.00000000      -3.18112119       2.11482080      -1.39754936
O        0.00000000       0.00000000       0.00000000      -0.08424529       0.57903994      -0.33531575
O        0.00000000       0.00000000       0.00000000       0.55636266       0.11949621       0.40519901
13
Lattice="529.1772105638412 0.0 0.0 0.0 529.1772105638412 0.0 0.0 0.0 529.1772105638412" Properties=species:S:1:pos:R:3:forces_component_raw:R:3 ipi_comment="Step:         220  Bead:       0 forces_component_raw{ase}  cell{ase}" pbc="T T T"
H        0.00000000       0.00000000       0.00000000      -0.00022107       0.53835621      -0.63763989
H        0.00000000       0.00000000       0.00000000       1.19520723      -0.50071006       0.28532330
H        0.00000000       0.00000000       0.00000000      -1.66407834       0.04186298      -0.04362865
H        0.00000000       0.00000000       0.00000000       0.12583415      -0.73386027       0.50971521
H        0.00000000       0.00000000       0.00000000      -0.76913230      -0.09318667      -0.09369471
H        0.00000000       0.00000000       0.00000000       0.05613925       0.07103716       0.53931483
H        0.00000000       0.00000000       0.00000000      -0.47386766       0.75908120       0.41835675
H        0.00000000       0.00000000       0.00000000       1.02577902      -0.43216707       1.99680807
H        0.00000000       0.00000000       0.00000000      -2.15862035      -0.44253622       0.26393851
O        0.00000000       0.00000000       0.00000000      -0.37222999       0.64384580      -0.07844811
O        0.00000000       0.00000000       0.00000000       2.37634716       0.48658235      -0.55559398
O        0.00000000       0.00000000       0.00000000       0.34558186      -0.81237875      -0.75134828
O        0.00000000       0.00000000       0.00000000       0.31326102       0.47407334      -1.85310303
13
Lattice="529.1772105638412 0.0 0.0 0.0 529.1772105638412 0.0 0.0 0.0 529.1772105638412" Properties=species:S:1:pos:R:3:forces_component_raw:R:3 ipi_comment="Step:         240  Bead:       0 forces_component_raw{ase}  cell{ase}" pbc="T T T"
H        0.00000000       0.00000000       0.00000000       0.55706415       0.61276943      -0.10711899
H        0.00000000       0.00000000       0.00000000      -0.19406797       0.35626894      -0.45283162
H        0.00000000       0.00000000       0.00000000       0.19983633      -0.61458601      -0.09958160
H        0.00000000       0.00000000       0.00000000      -0.37878231       0.12093717      -0.24616963
H        0.00000000       0.00000000       0.00000000      -0.07258390      -0.78241786       0.03664420
H        0.00000000       0.00000000       0.00000000       0.31276987       0.00432726       0.34101095
H        0.00000000       0.00000000       0.00000000      -0.18108840       0.78632745       1.42825686
H        0.00000000       0.00000000       0.00000000       0.79535879      -0.31053113       1.78507207
H        0.00000000       0.00000000       0.00000000      -0.54612089      -0.16227106      -0.04770817
O        0.00000000       0.00000000       0.00000000       0.11845954       0.29553614       0.72103532
O        0.00000000       0.00000000       0.00000000      -0.23158374       1.11069463       0.13197409
O        0.00000000       0.00000000       0.00000000      -0.22561861      -1.51059982      -2.00451360
O        0.00000000       0.00000000       0.00000000      -0.15364286       0.09354488      -1.48606989
13
Lattice="529.1772105638412 0.0 0.0 0.0 529.1772105638412 0.0 0.0 0.0 529.1772105638412" Properties=species:S:1:pos:R:3:forces_component_raw:R:3 ipi_comment="Step:         260  Bead:       0 forces_component_raw{ase}  cell{ase}" pbc="T T T"
H        0.00000000       0.00000000       0.00000000      -0.80974440      -0.20837319       0.08460309
H        0.00000000       0.00000000       0.00000000      -0.54462179      -0.16322249       0.21908057
H        0.00000000       0.00000000       0.00000000       0.51699144       1.07980641      -0.12138181
H        0.00000000       0.00000000       0.00000000      -0.03242530       0.47716568      -0.84849136
H        0.00000000       0.00000000       0.00000000       0.03089643      -0.72767405       0.35225502
H        0.00000000       0.00000000       0.00000000       0.94394926      -0.12602570       0.86795447
H        0.00000000       0.00000000       0.00000000      -0.27911995       0.81884243       0.97534734
H        0.00000000       0.00000000       0.00000000      -0.28260879      -0.16838643       0.63710078
H        0.00000000       0.00000000       0.00000000       0.23684705      -0.02543244       0.33497180
O        0.00000000       0.00000000       0.00000000       0.59702350      -0.57174831       0.32322352
O        0.00000000       0.00000000       0.00000000      -0.77171565      -0.42675971       0.62434943
O        0.00000000       0.00000000       0.00000000      -0.28187582      -0.56163564      -1.81036678
O        0.00000000       0.00000000       0.00000000       0.67640401       0.60344345      -1.63864607
13
Lattice="529.1772105638412 0.0 0.0 0.0 529.1772105638412 0.0 0.0 0.0 529.1772105638412" Properties=species:S:1:pos:R:3:forces_component_raw:R:3 ipi_comment="Step:         280  Bead:       0 forces_component_raw{ase}  cell{ase}" pbc="T T T"
H        0.00000000       0.00000000       0.00000000      -0.70096465       0.50543784       0.27258491
H        0.00000000       0.00000000       0.00000000       0.58463841      -0.22057620       0.04602971
H        0.00000000       0.00000000       0.00000000       0.59894829      -0.57537055      -0.13384361
H        0.00000000       0.00000000       0.00000000      -0.52943948       0.18420247      -1.78814713
H        0.00000000       0.00000000       0.00000000       0.35565448      -0.92091748       0.28234708
H        0.00000000       0.00000000       0.00000000       0.41779749       0.42480258       0.56449514
H        0.00000000       0.00000000       0.00000000      -0.37739510       0.27947482      -0.13178094
H        0.00000000       0.00000000       0.00000000      -0.29251236       0.02997045      -0.21850210
H        0.00000000       0.00000000       0.00000000      -0.14338020      -0.08514661       0.25713409
O        0.00000000       0.00000000       0.00000000       0.05155095      -0.16327755       0.14607363
O        0.00000000       0.00000000       0.00000000      -0.52809538       1.18241180       1.65991490
O        0.00000000       0.00000000       0.00000000       0.23685272      -0.94673465      -0.56981031
O        0.00000000       0.00000000       0.00000000       0.32634483       0.30572308      -0.38649536
13
Lattice="529.1772105638412 0.0 0.0 0.0 529.1772105638412 0.0 0.0 0.0 529.1772105638412" Properties=species:S:1:pos:R:3:forces_component_raw:R:3 ipi_comment="Step:         300  Bead:       0 forces_component_raw{ase}  cell{ase}" pbc="T T T"
H        0.00000000       0.00000000       0.00000000       0.54399227       0.54077095      -0.64376996
H        0.00000000       0.00000000       0.00000000      -0.65146149      -1.10246445       0.57220904
H        0.00000000       0.00000000       0.00000000      -0.16625929       0.36794053      -0.26240006
H        0.00000000       0.00000000       0.00000000      -0.80441017       0.19834702      -1.74836424
H        0.00000000       0.00000000       0.00000000      -0.61388850      -0.30634979       0.12338396
H        0.00000000       0.00000000       0.00000000      -1.08618413       0.03133282      -0.35754548
H        0.00000000       0.00000000       0.00000000      -0.07226396      -0.24733992      -0.34174576
H        0.00000000       0.00000000       0.00000000      -0.74994861      -0.04519317      -0.81397492
H        0.00000000       0.00000000       0.00000000       0.44683486      -0.23238848       0.14369357
O        0.00000000       0.00000000       0.00000000       0.01990987      -0.70747567       0.35590600
O        0.00000000       0.00000000       0.00000000       1.61699538      -0.10474014       1.78789614
O        0.00000000       0.00000000       0.00000000       0.69443848       0.60997654       0.92891994
O        0.00000000       0.00000000       0.00000000       0.82224531       0.99758375       0.25579176
13
Lattice="529.1772105638412 0.0 0.0 0.0 529.1772105638412 0.0 0.0 0.0 529.1772105638412" Properties=species:S:1:pos:R:3:forces_component_raw:R:3 ipi_comment="Step:         320  Bead:       0 forces_component_raw{ase}  cell{ase}" pbc="T T T"
H        0.00000000       0.00000000       0.00000000      -0.19759948      -0.40654401      -0.07768190
H        0.00000000       0.00000000       0.00000000      -0.35887397      -0.42211615       0.54668395
H        0.00000000       0.00000000       0.00000000      -0.50438563       0.40881715       0.26906777
H        0.00000000       0.00000000       0.00000000      -0.63544451       0.57009935      -1.21026444
H        0.00000000       0.00000000       0.00000000       0.41065553       0.55492652      -0.68730490
H        0.00000000       0.00000000       0.00000000      -1.60704076       0.05083045      -0.54531105
H        0.00000000       0.00000000       0.00000000      -0.26966192      -0.20351758      -0.41809648
H        0.00000000       0.00000000       0.00000000      -0.81310903       0.42036875      -0.82878877
H        0.00000000       0.00000000       0.00000000       0.27810367      -0.37237059       0.36810865
O        0.00000000       0.00000000       0.00000000      -0.81034101      -0.48087514       0.35867768
O        0.00000000       0.00000000       0.00000000       0.91286931      -1.25407688       1.83769265
O        0.00000000       0.00000000       0.00000000       2.39968650       0.26393697       1.05012991
O        0.00000000       0.00000000       0.00000000       1.19514129       0.87052116      -0.66291307
13
Lattice="529.1772105638412 0.0 0.0 0.0 529.1772105638412 0.0 0.0 0.0 529.1772105638412" Properties=species:S:1:pos:R:3:forces_component_raw:R:3 ipi_comment="Step:         340  Bead:       0 forces_component_raw{ase}  cell{ase}" pbc="T T T"
H        0.00000000       0.00000000       0.00000000      -0.07298501       0.19191002       0.50485110
H        0.00000000       0.00000000       0.00000000      -0.34347580       0.63743127      -0.00713487
H        0.00000000       0.00000000       0.00000000       0.29627447      -0.53968478      -0.06554089
H        0.00000000       0.00000000       0.00000000       0.35953696       0.15490609      -0.39914211
H        0.00000000       0.00000000       0.00000000       0.83783063       0.27044246      -0.80920029
H        0.00000000       0.00000000       0.00000000      -1.00422882       0.42849565      -0.07632215
H        0.00000000       0.00000000       0.00000000      -0.23545924       0.31130540       0.11884270
H        0.00000000       0.00000000       0.00000000      -0.46333406       0.41787125      -0.75600288
H        0.00000000       0.00000000       0.00000000       0.89817233      -0.24139739      -0.52122234
O        0.00000000       0.00000000       0.00000000      -0.17346382       0.38389662      -0.35084987
O        0.00000000       0.00000000       0.00000000      -1.74231391      -0.17659502       1.50807978
O        0.00000000       0.00000000       0.00000000       1.65485543      -1.50935605      -0.27831828
O        0.00000000       0.00000000       0.00000000      -0.01140916      -0.32922550       1.13196010
13
Lattice="529.1772105638412 0.0 0.0 0.0 529.1772105638412 0.0 0.0 0.0 529.1772105638412" Properties=species:S:1:pos:R:3:forces_component_raw:R:3 ipi_comment="Step:         360  Bead:       0 forces_component_raw{ase}  cell{ase}" pbc="T T T"
H        0.00000000       0.00000000       0.00000000      -0.12545249      -0.07551740      -0.66390028
H        0.00000000       0.00000000       0.00000000       0.60773357      -0.56467504      -0.49481727
H        0.00000000       0.00000000       0.00000000       0.09779573       0.52889196       0.00976747
H        0.00000000       0.00000000       0.00000000       0.50566556      -0.44772758       0.59257305
H        0.00000000       0.00000000       0.00000000       0.18289923       0.05868241      -0.91637668
H        0.00000000       0.00000000       0.00000000      -0.30695885      -0.29278391      -0.13923970
H        0.00000000       0.00000000       0.00000000       0.50463110       1.30949548       0.57454927