13
Lattice="529.1772105638412 0.0 0.0 0.0 529.1772105638412 0.0 0.0 0.0 529.1772105638412" Properties=species:S:1:pos:R:3:forces_component_raw:R:3 ipi_comment="Step:           0  Bead:       0 forces_component_raw{ase}  cell{ase}" pbc="T T T"
H        0.00000000       0.00000000       0.00000000      -0.29342310       1.54729986       0.18298331
H        0.00000000       0.00000000       0.00000000      -0.15336574      -0.17577038       0.15509782
H        0.00000000       0.00000000       0.00000000       1.84966568      -0.18411351      -0.09393258
H        0.00000000       0.00000000       0.00000000       0.52848064      -0.47984932       0.23093389
H        0.00000000       0.00000000       0.00000000       0.30760302       0.00403966      -0.00034889
H        0.00000000       0.00000000       0.00000000      -0.00898796       0.23942407      -0.70205571
H        0.00000000       0.00000000       0.00000000       0.09819717      -0.74244440      -0.28492708
H        0.00000000       0.00000000       0.00000000       0.10934369       0.14371884      -0.28611720
H        0.00000000       0.00000000       0.00000000      -0.41133716      -0.09831981      -0.31862796
O        0.00000000       0.00000000       0.00000000      -1.71890682      -1.46476015       0.34863022
O        0.00000000       0.00000000       0.00000000      -0.80155345       0.37076889      -0.07338895
O        0.00000000       0.00000000       0.00000000      -0.20483427       0.41825926       0.80444288
O        0.00000000       0.00000000       0.00000000       0.69911832       0.42174698       0.03731024
13
Lattice="529.1772105638412 0.0 0.0 0.0 529.1772105638412 0.0 0.0 0.0 529.1772105638412" Properties=species:S:1:pos:R:3:forces_component_raw:R:3 ipi_comment="Step:          20  Bead:       0 forces_component_raw{ase}  cell{ase}" pbc="T T T"
H        0.00000000       0.00000000       0.00000000       0.12455061      -0.65200328      -0.27884030
H        0.00000000       0.00000000       0.00000000       0.03378116       0.34295271       0.20616189
H        0.00000000       0.00000000       0.00000000      -0.71899252      -0.12344316       0.18570855
H        0.00000000       0.00000000       0.00000000      -0.00399964      -0.88496252      -0.01494190
H        0.00000000       0.00000000       0.00000000      -0.80298553      -0.68553514      -0.48484406
H        0.00000000       0.00000000       0.00000000      -0.14851769       0.45592833      -0.68323679
H        0.00000000       0.00000000       0.00000000       0.12000492      -0.13034624      -0.73652568
H        0.00000000       0.00000000       0.00000000       0.44877782      -0.19219794       0.97596525
H        0.00000000       0.00000000       0.00000000      -0.03844961      -0.01502105      -0.05340787
O        0.00000000       0.00000000       0.00000000       0.35094711      -0.45652856       0.35845613
O        0.00000000       0.00000000       0.00000000       0.87823771       1.63503964       0.36348745
O        0.00000000       0.00000000       0.00000000      -0.13327359       0.21927322       1.66779248
O        0.00000000       0.00000000       0.00000000      -0.11008076       0.48684399      -1.50577515
13
Lattice="529.1772105638412 0.0 0.0 0.0 529.1772105638412 0.0 0.0 0.0 529.1772105638412" Properties=species:S:1:pos:R:3:forces_component_raw:R:3 ipi_comment="Step:          40  Bead:       0 forces_component_raw{ase}  cell{ase}" pbc="T T T"
H        0.00000000       0.00000000       0.00000000      -0.26768671       0.52946121       0.09843686
H        0.00000000       0.00000000       0.00000000      -0.00810068      -0.12591309      -0.54196209
H        0.00000000       0.00000000       0.00000000       0.65042756       0.04420300       0.03082910
H        0.00000000       0.00000000       0.00000000       0.45390558       0.37876753       0.12245601
H        0.00000000       0.00000000       0.00000000      -0.41822376      -1.71112095      -0.38560899
H        0.00000000       0.00000000       0.00000000      -0.01838531      -0.03425777       0.16764829
H        0.00000000       0.00000000       0.00000000       0.17667919      -0.30898794      -0.39086662
H        0.00000000       0.00000000       0.00000000       0.51345734      -0.33921316       0.95037950
H        0.00000000       0.00000000       0.00000000      -0.05420709       0.03777583      -0.14764818
O        0.00000000       0.00000000       0.00000000      -1.19854269      -1.18893434       0.84536091
O        0.00000000       0.00000000       0.00000000       0.51326605       1.14734391       0.22793881
O        0.00000000       0.00000000       0.00000000      -0.19790583       0.87047103       0.11126766
O        0.00000000       0.00000000       0.00000000      -0.14468366       0.70040473      -1.08823126
13
Lattice="529.1772105638412 0.0 0.0 0.0 529.1772105638412 0.0 0.0 0.0 529.1772105638412" Properties=species:S:1:pos:R:3:forces_component_raw:R:3 ipi_comment="Step:          60  Bead:       0 forces_component_raw{ase}  cell{ase}" pbc="T T T"
H        0.00000000       0.00000000       0.00000000      -0.02521947      -0.41761168       0.29360378
H        0.00000000       0.00000000       0.00000000       0.32833032      -0.32931923       0.06421225
H        0.00000000       0.00000000       0.00000000      -0.58519371       0.03670171      -0.34758387
H        0.00000000       0.00000000       0.00000000      -0.80560394       0.26878186       0.13042005
H        0.00000000       0.00000000       0.00000000      -1.40581196      -0.48934794       0.08345033
H        0.00000000       0.00000000       0.00000000       0.28253479      -0.49298932       0.36967705
H        0.00000000       0.00000000       0.00000000      -0.16577132      -0.10747645       0.52971673
H        0.00000000       0.00000000       0.00000000       0.35382936      -0.18830963       0.38056463
H        0.00000000       0.00000000       0.00000000      -0.13290720      -0.05655087       0.03379851
O        0.00000000       0.00000000       0.00000000       0.21004744       1.64458604      -0.76693149
O        0.00000000       0.00000000       0.00000000       3.11486483       0.04290431      -0.11722585
O        0.00000000       0.00000000       0.00000000      -0.11297282       0.32578156      -1.08877454
O        0.00000000       0.00000000       0.00000000      -1.05612632      -0.23715037       0.43507243
13
Lattice="529.1772105638412 0.0 0.0 0.0 529.1772105638412 0.0 0.0 0.0 529.1772105638412" Properties=species:S:1:pos:R:3:forces_component_raw:R:3 ipi_comment="Step:          80  Bead:       0 forces_component_raw{ase}  cell{ase}" pbc="T T T"
H        0.00000000       0.00000000       0.00000000       0.43614706      -0.40507804      -0.16767179
H        0.00000000       0.00000000       0.00000000      -0.08149009       1.21010122      -0.81098562
H        0.00000000       0.00000000       0.00000000      -0.40409456       0.15734361      -0.19271420
H        0.00000000       0.00000000       0.00000000       0.02018007       1.61085209       0.39835244
H        0.00000000       0.00000000       0.00000000      -0.00377194      -0.77006454      -0.18395183
H        0.00000000       0.00000000       0.00000000       0.04765819      -0.21152130       0.47128217
H        0.00000000       0.00000000       0.00000000      -0.70321854       0.72179586       0.70890357
H        0.00000000       0.00000000       0.00000000      -0.91674023       0.19757410      -0.14682469
H        0.00000000       0.00000000       0.00000000       0.20942168      -0.11153008       0.18520721
O        0.00000000       0.00000000       0.00000000       0.23308590       0.94155145      -0.73153252
O        0.00000000       0.00000000       0.00000000       0.73452984      -1.10054222      -0.15048313
O        0.00000000       0.00000000       0.00000000       0.31747988      -0.91433660      -0.93797943
O        0.00000000       0.00000000       0.00000000       0.11081273      -1.32614555       1.55839783
13
Lattice="529.1772105638412 0.0 0.0 0.0 529.1772105638412 0.0 0.0 0.0 529.1772105638412" Properties=species:S:1:pos:R:3:forces_component_raw:R:3 ipi_comment="Step:         100  Bead:       0 forces_component_raw{ase}  cell{ase}" pbc="T T T"
H        0.00000000       0.00000000       0.00000000      -0.06378323       0.01761228       0.31723485
H        0.00000000       0.00000000       0.00000000       0.82901021      -0.17971867       0.07487570
H        0.00000000       0.00000000       0.00000000      -0.17026390      -0.45345037       0.53207004
H        0.00000000       0.00000000       0.00000000      -1.03041951       0.69351432       1.17162929
H        0.00000000       0.00000000       0.00000000      -0.13054331       0.33080733       0.40787751
H        0.00000000       0.00000000       0.00000000       0.26967078      -0.04954127       0.51067350
H        0.00000000       0.00000000       0.00000000      -0.92908361       0.61227129       1.03018268
H        0.00000000       0.00000000       0.00000000      -0.75894640       1.32063625      -0.69193891
H        0.00000000       0.00000000       0.00000000      -0.01614097       0.39632990      -0.00238507
O        0.00000000       0.00000000       0.00000000      -0.21906170      -0.16797631      -0.53728275
O        0.00000000       0.00000000       0.00000000       1.38171020      -0.92789187      -1.77784766
O        0.00000000       0.00000000       0.00000000       0.46132790       0.21107570      -1.83217888
O        0.00000000       0.00000000       0.00000000       0.37652353      -1.80366857       0.79708971
13
Lattice="529.1772105638412 0.0 0.0 0.0 529.1772105638412 0.0 0.0 0.0 529.1772105638412" Properties=species:S:1:pos:R:3:forces_component_raw:R:3 ipi_comment="Step:         120  Bead:       0 forces_component_raw{ase}  cell{ase}" pbc="T T T"
H        0.00000000       0.00000000       0.00000000       0.30719121      -1.23645275      -0.24868586
H        0.00000000       0.00000000       0.00000000      -0.50093824      -0.00668369      -0.72832449
H        0.00000000       0.00000000       0.00000000      -0.36963370       0.57983937      -0.75705234
H        0.00000000       0.00000000       0.00000000      -0.68135509       1.38477278       0.56751198
H        0.00000000       0.00000000       0.00000000       0.65568395       0.34106512      -0.40672718
H        0.00000000       0.00000000       0.00000000      -0.06895351      -0.02720522       0.29393953
H        0.00000000       0.00000000       0.00000000      -0.67439842       0.57843236       0.57499582
H        0.00000000       0.00000000       0.00000000      -1.59915477       0.63284687      -0.45021026
H        0.00000000       0.00000000       0.00000000       0.77707309       0.11870983       0.16761037
O        0.00000000       0.00000000       0.00000000       0.35500318      -1.38819140       1.77098739
O        0.00000000       0.00000000       0.00000000      -0.11053476      -1.79110230      -0.01148478
O        0.00000000       0.00000000       0.00000000       0.38859847       1.23051941      -0.77759509
O        0.00000000       0.00000000       0.00000000       1.52141860      -0.41655039       0.00503490
13
Lattice="529.1772105638412 0.0 0.0 0.0 529.1772105638412 0.0 0.0 0.0 529.1772105638412" Properties=species:S:1:pos:R:3:forces_component_raw:R:3 ipi_comment="Step:         140  Bead:       0 forces_component_raw{ase}  cell{ase}" pbc="T T T"
H        0.00000000       0.00000000       0.00000000      -0.03354648      -1.00122113       0.00908129
H        0.00000000       0.00000000       0.00000000       0.96372396       0.33336496       0.19579529
H        0.00000000       0.00000000       0.00000000      -0.90493993       0.00433139       0.61819747
H        0.00000000       0.00000000       0.00000000      -0.64586336       0.09278088       0.35924478
H        0.00000000       0.00000000       0.00000000       0.70205867       1.69690741      -0.51938535
H        0.00000000       0.00000000       0.00000000       0.14052459      -0.21815668       0.11196304
H        0.00000000       0.00000000       0.00000000      -0.03990028      -0.04045091       0.21360531
H        0.00000000       0.00000000       0.00000000       0.42028434       0.67412197      -0.26132234
H        0.00000000       0.00000000       0.00000000       0.23642607       0.65012007       0.16951758
O        0.00000000       0.00000000       0.00000000       0.03716934       0.66453382      -0.11820834
O        0.00000000       0.00000000       0.00000000       0.24485342      -1.68316677      -0.10878166
O        0.00000000       0.00000000       0.00000000       0.00597846       0.17840545      -0.32911320
O        0.00000000       0.00000000       0.00000000      -1.12676879      -1.35157046      -0.34059388
13
Lattice="529.1772105638412 0.0 0.0 0.0 529.1772105638412 0.0 0.0 0.0 529.1772105638412" Properties=species:S:1:pos:R:3:forces_component_raw:R:3 ipi_comment="Step:         160  Bead:       0 forces_component_raw{ase}  cell{ase}" pbc="T T T"
H        0.00000000       0.00000000       0.00000000       0.23612387       0.25762978       0.11691940
H        0.00000000       0.00000000       0.00000000      -0.77019222       0.62371239      -0.56851215
H        0.00000000       0.00000000       0.00000000      -0.43381117       0.17167998       0.21011563
H        0.00000000       0.00000000       0.00000000       0.30460531      -0.00457469      -0.14805144
H        0.00000000       0.00000000       0.00000000       1.24372470       1.36212502      -0.67961265
H        0.00000000       0.00000000       0.00000000       0.18906111      -0.12721883       0.10313426
H        0.00000000       0.00000000       0.00000000       0.30095148      -0.02324658      -0.26240118
H        0.00000000       0.00000000       0.00000000      -0.12486964      -0.52500161       0.46810584
H        0.00000000       0.00000000       0.00000000      -0.17538938      -0.22838679      -0.14324928
O        0.00000000       0.00000000       0.00000000       0.06457550      -0.28635279       0.35418118
O        0.00000000       0.00000000       0.00000000      -1.34466231      -1.40471644       0.70764122
O        0.00000000       0.00000000       0.00000000      -0.51246894      -0.36653307       0.14224708
O        0.00000000       0.00000000       0.00000000       1.02235168       0.55088362      -0.30051790
13
Lattice="529.1772105638412 0.0 0.0 0.0 529.1772105638412 0.0 0.0 0.0 529.1772105638412" Properties=species:S:1:pos:R:3:forces_component_raw:R:3 ipi_comment="Step:         180  Bead:       0 forces_component_raw{ase}  cell{ase}" pbc="T T T"
H        0.00000000       0.00000000       0.00000000       0.09352594      -0.34345196      -0.26464422
H        0.00000000       0.00000000       0.00000000       0.09720283      -1.00766301       0.86213397
H        0.00000000       0.00000000       0.00000000      -0.24292821      -0.21372791      -0.15618109
H        0.00000000       0.00000000       0.00000000       0.71168061      -2.03872002      -0.09174211
H        0.00000000       0.00000000       0.00000000       0.47443702       1.28518467      -0.23232153
H        0.00000000       0.00000000       0.00000000      -0.24260404       0.23783305      -0.71565842
H        0.00000000       0.00000000       0.00000000       0.54629174      -0.12935366      -0.80091312
H        0.00000000       0.00000000       0.00000000       1.11207321      -0.72368717       0.87077800
H        0.00000000       0.00000000       0.00000000      -0.64047589       0.19278398      -0.30569942
O        0.00000000       0.00000000       0.00000000       0.37884698       2.59761455      -1.27540214
O        0.00000000       0.00000000       0.00000000      -1.13796829       0.63545417       0.46473026
O        0.00000000       0.00000000       0.00000000      -0.09686025      -0.82405944       1.62404628
O        0.00000000       0.00000000       0.00000000      -1.05322164       0.33179275       0.02087353
13
Lattice="529.1772105638412 0.0 0.0 0.0 529.1772105638412 0.0 0.0 0.0 529.1772105638412" Properties=species:S:1:pos:R:3:forces_component_raw:R:3 ipi_comment="Step:         200  Bead:       0 forces_component_raw{ase}  cell{ase}" pbc="T T T"
H        0.00000000       0.00000000       0.00000000      -0.19241625      -0.40478253       0.61136950
H        0.00000000       0.00000000       0.00000000      -0.15160341       0.85335149      -0.48092854
H        0.00000000       0.00000000       0.00000000       0.02914128       0.25068996      -0.26354398
H        0.00000000       0.00000000       0.00000000       1.24406518      -1.51094652      -0.00343298
H        0.00000000       0.00000000       0.00000000       0.06638303      -0.27844302       0.03611504
H        0.00000000       0.00000000       0.00000000       0.17851057      -0.21559262      -0.05437666
H        0.00000000       0.00000000       0.00000000       0.30079764      -0.28787851      -0.31951562
H        0.00000000       0.00000000       0.00000000       0.26627856      -1.19330458       1.36642112
H        0.00000000       0.00000000       0.00000000      -1.24481996      -0.53179345       0.10736637
O        0.00000000       0.00000000       0.00000000       0.12313924       0.66257202      -0.50955138
O        0.00000000       0.00000000       0.00000000      -1.13125173       1.54042821       0.04812622
O        0.00000000       0.00000000       0.00000000      -0.22631344       0.04277832       0.21123978
O        0.00000000       0.00000000       0.00000000       0.73808929       1.07292123      -0.74928888
13
Lattice="529.1772105638412 0.0 0.0 0.0 529.1772105638412 0.0 0.0 0.0 529.1772105638412" Properties=species:S:1:pos:R:3:forces_component_raw:R:3 ipi_comment="Step:         220  Bead:       0 forces_component_raw{ase}  cell{ase}" pbc="T T T"
H        0.00000000       0.00000000       0.00000000       0.70924565       0.07810580      -0.60915569
H        0.00000000       0.00000000       0.00000000       0.63637155      -0.09908786      -0.42647284
H        0.00000000       0.00000000       0.00000000      -0.53934420      -0.54421060       0.59777902
H        0.00000000       0.00000000       0.00000000      -0.20809099      -0.26324774       0.05873252
H        0.00000000       0.00000000       0.00000000      -0.83091462      -0.83354237       0.17642493
H        0.00000000       0.00000000       0.00000000       0.22205690      -0.53627664       0.36176698
H        0.00000000       0.00000000       0.00000000      -0.04312658       0.05248219       0.10578412
H        0.00000000       0.00000000       0.00000000       1.22830171      -0.57537109       0.72574406
H        0.00000000       0.00000000       0.00000000      -1.58071522       0.22827576      -0.66311049
O        0.00000000       0.00000000       0.00000000      -0.54329912       0.02681906       0.45970920
O        0.00000000       0.00000000       0.00000000       1.01928136       1.41364395      -0.42827198
O        0.00000000       0.00000000       0.00000000      -0.38840062       0.66007727      -0.26527734
O        0.00000000       0.00000000       0.00000000       0.31863417       0.39233225      -0.09365250
13
Lattice="529.1772105638412 0.0 0.0 0.0 529.1772105638412 0.0 0.0 0.0 529.1772105638412" Properties=species:S:1:pos:R:3:forces_component_raw:R:3 ipi_comment="Step:         240  Bead:       0 forces_component_raw{ase}  cell{ase}" pbc="T T T"
H        0.00000000       0.00000000       0.00000000      -0.13555602      -1.01676355       0.56957949
H        0.00000000       0.00000000       0.00000000      -0.44632041       1.01193544      -0.46453539
H        0.00000000       0.00000000       0.00000000      -0.58047332       0.42095914      -0.76023323
H        0.00000000       0.00000000       0.00000000      -0.42736406       1.14949710      -0.41758014
H        0.00000000       0.00000000       0.00000000      -0.65782954      -0.99841798       0.45567201
H        0.00000000       0.00000000       0.00000000      -0.06972204       0.08708464       0.64619734
H        0.00000000       0.00000000       0.00000000      -0.17129253       0.62050035       0.59809159
H        0.00000000       0.00000000       0.00000000      -0.19474825      -0.26443471       0.12498625
H        0.00000000       0.00000000       0.00000000       0.08104199      -0.24475449       0.19090203
O        0.00000000       0.00000000       0.00000000       1.23355762      -1.94550005       1.27645047
O        0.00000000       0.00000000       0.00000000       1.17561463      -0.32213578       0.19642220
O        0.00000000       0.00000000       0.00000000      -0.37515373       0.88459496      -1.64000448
O        0.00000000       0.00000000       0.00000000       0.56824566       0.61743491      -0.77594814
13
Lattice="529.1772105638412 0.0 0.0 0.0 529.1772105638412 0.0 0.0 0.0 529.1772105638412" Properties=species:S:1:pos:R:3:forces_component_raw:R:3 ipi_comment="Step:         260  Bead:       0 forces_component_raw{ase}  cell{ase}" pbc="T T T"
H        0.00000000       0.00000000       0.00000000      -0.05808057       0.07617009      -0.74673326
H        0.00000000       0.00000000       0.00000000       0.80563201      -0.42344823      -0.15979459
H        0.00000000       0.00000000       0.00000000      -0.19074982      -0.16158062       0.33183766
H        0.00000000       0.00000000       0.00000000      -1.49860432       1.33695243      -0.78275215
H        0.00000000       0.00000000       0.00000000      -0.65875136      -0.76389577       0.37091812
H        0.00000000       0.00000000       0.00000000       0.05274240      -0.36904460       0.54770604
H        0.00000000       0.00000000       0.00000000      -0.07268315       0.35443379       0.45038967
H        0.00000000       0.00000000       0.00000000      -0.35650371       0.71676005      -0.60462317
H        0.00000000       0.00000000       0.00000000       1.18459781       0.18969420       0.04282255
O        0.00000000       0.00000000       0.00000000      -0.78200947      -0.85293309       1.04317296
O        0.00000000       0.00000000       0.00000000       2.56305266      -0.54447523       0.26032884
O        0.00000000       0.00000000       0.00000000      -0.31241183       0.84586026      -0.79706515
O        0.00000000       0.00000000       0.00000000      -0.67623064      -0.40449329       0.04379249
13
Lattice="529.1772105638412 0.0 0.0 0.0 529.1772105638412 0.0 0.0 0.0 529.1772105638412" Properties=species:S:1:pos:R:3:forces_component_raw:R:3 ipi_comment="Step:         280  Bead:       0 forces_component_raw{ase}  cell{ase}" pbc="T T T"
H        0.00000000       0.00000000       0.00000000      -0.01459981      -0.63049018       0.53529600
H        0.00000000       0.00000000       0.00000000      -0.19271078       0.66276638      -0.31731638
H        0.00000000       0.00000000       0.00000000      -0.36364490       0.10455689      -0.21695287
H        0.00000000       0.00000000       0.00000000      -1.15128880       2.03476771      -1.65148839
H        0.00000000       0.00000000       0.00000000       0.00740923      -0.87351632       0.62245654
H        0.00000000       0.00000000       0.00000000      -0.11873854       0.22673779      -0.16945442
H        0.00000000       0.00000000       0.00000000       0.14839597      -0.24843497      -0.10280903
H        0.00000000       0.00000000       0.00000000      -0.97716986       1.05973376      -0.21059695
H        0.00000000       0.00000000       0.00000000       0.75708400       0.11609666      -0.12541037
O        0.00000000       0.00000000       0.00000000       0.19525439       0.37524522      -0.16633788
O        0.00000000       0.00000000       0.00000000       1.21854027      -1.25349160       1.19956652
O        0.00000000       0.00000000       0.00000000       0.09367484       0.07903535      -0.06244676
O        0.00000000       0.00000000       0.00000000       0.39779398      -1.65300669       0.66549398
13
Lattice="529.1772105638412 0.0 0.0 0.0 529.1772105638412 0.0 0.0 0.0 529.1772105638412" Properties=species:S:1:pos:R:3:forces_component_raw:R:3 ipi_comment="Step:         300  Bead:       0 forces_component_raw{ase}  cell{ase}" pbc="T T T"
H        0.00000000       0.00000000       0.00000000       0.46788364      -0.36071188      -0.37710192
H        0.00000000       0.00000000       0.00000000       1.03663123      -0.03735528      -0.32833505
H        0.00000000       0.00000000       0.00000000      -0.58324451       0.21602726       0.34448111
H        0.00000000       0.00000000       0.00000000      -1.63170833       0.88589258      -1.07447605
H        0.00000000       0.00000000       0.00000000      -0.67295481      -0.34438882       0.07039273
H        0.00000000       0.00000000       0.00000000      -0.06789624       0.58446066      -1.58955114
H        0.00000000       0.00000000       0.00000000      -0.30753401      -0.29193944      -0.27907833
H        0.00000000       0.00000000       0.00000000      -0.52052289       1.83118194      -0.13021684
H        0.00000000       0.00000000       0.00000000       1.11894686      -0.04877402       0.16371516
O        0.00000000       0.00000000       0.00000000      -0.75046565       1.11068109      -0.38199097
O        0.00000000       0.00000000       0.00000000       2.35503531      -0.67936196       0.93926977
O        0.00000000       0.00000000       0.00000000       0.79402034      -0.64472468       2.14640341
O        0.00000000       0.00000000       0.00000000      -1.23819093      -2.22098742       0.49648813
13
Lattice="529.1772105638412 0.0 0.0 0.0 529.1772105638412 0.0 0.0 0.0 529.1772105638412" Properties=species:S:1:pos:R:3:forces_component_raw:R:3 ipi_comment="Step:         320  Bead:       0 forces_component_raw{ase}  cell{ase}" pbc="T T T"
H        0.00000000       0.00000000       0.00000000       0.04601219      -0.35220951       0.49452327
H        0.00000000       0.00000000       0.00000000      -0.46913209       0.59760338      -0.28000764
H        0.00000000       0.00000000       0.00000000      -0.31914223       0.00665458      -0.05711592
H        0.00000000       0.00000000       0.00000000      -0.33427055       0.74764765      -0.69117363
H        0.00000000       0.00000000       0.00000000       0.73810134       0.58153951      -0.15528881
H        0.00000000       0.00000000       0.00000000      -0.34468319       1.13932941      -2.26622515
H        0.00000000       0.00000000       0.00000000      -0.32289601      -0.00749651      -0.07449983
H        0.00000000       0.00000000       0.00000000      -0.28787562       1.55398030       0.46883719
H        0.00000000       0.00000000       0.00000000       0.99889207      -0.53470560       0.26848832
O        0.00000000       0.00000000       0.00000000       0.39853605       0.45744491      -0.48889827
O        0.00000000       0.00000000       0.00000000      -0.45647321      -1.25781814       0.94363136
O        0.00000000       0.00000000       0.00000000       1.09875021      -1.40019522       2.27974380
O        0.00000000       0.00000000       0.00000000      -0.74581896      -1.53177475      -0.44201468
13
Lattice="529.1772105638412 0.0 0.0 0.0 529.1772105638412 0.0 0.0 0.0 529.1772105638412" Properties=species:S:1:pos:R:3:forces_component_raw:R:3 ipi_comment="Step:         340  Bead:       0 forces_component_raw{ase}  cell{ase}" pbc="T T T"
H        0.00000000       0.00000000       0.00000000       0.57536377      -0.15116598      -0.05908678
H        0.00000000       0.00000000       0.00000000       0.30969644       0.04397138      -0.47085568
H        0.00000000       0.00000000       0.00000000      -0.46922301       0.00476175       0.49481435
H        0.00000000       0.00000000       0.00000000       0.28852875      -0.63288155       0.61932263
H        0.00000000       0.00000000       0.00000000       0.31838991       0.86590918      -0.47951335
H        0.00000000       0.00000000       0.00000000      -0.27313985       0.44152565      -1.45394334
H        0.00000000       0.00000000       0.00000000       0.14439806       0.67918124       0.59418415
H        0.00000000       0.00000000       0.00000000       0.31464100       0.18818848       0.20073865
H        0.00000000       0.00000000       0.00000000       0.87324192      -0.75815516       0.59030466
O        0.00000000       0.00000000       0.00000000       0.12200497      -0.30706869       0.06561726
O        0.00000000       0.00000000       0.00000000      -0.94957932      -0.09160937      -0.24224239
O        0.00000000       0.00000000       0.00000000       0.11436986      -1.13051412       0.96203590
O        0.00000000       0.00000000       0.00000000      -1.36869252       0.84785718      -0.82137606
13
Lattice="529.1772105638412 0.0 0.0 0.0 529.1772105638412 0.0 0.0 0.0 529.1772105638412" Properties=species:S:1:pos:R:3:forces_component_raw:R:3 ipi_comment="Step:         360  Bead:       0 forces_component_raw{ase}  cell{ase}" pbc="T T T"
H        0.00000000       0.00000000       0.00000000      -0.27696685      -0.78308680       0.24616703
H        0.00000000       0.00000000       0.00000000      -0.00884832       0.80276965      -0.17443212
H        0.00000000       0.00000000       0.00000000      -0.44672285       0.47237641      -0.11626138
H        0.00000000       0.00000000       0.00000000       1.40325972      -0.58894830       0.87248897
H        0.00000000       0.00000000       0.00000000       0.32907932       0.14256926       0.03914512
H        0.00000000       0.00000000       0.00000000      -0.05610409       0.04951365      -0.41573609
H        0.00000000       0.00000000       0.00000000       0.13031135       1.40795447       1.00572826