13
Lattice="529.1772105638412 0.0 0.0 0.0 529.1772105638412 0.0 0.0 0.0 529.1772105638412" Properties=species:S:1:pos:R:3:forces_component_raw:R:3 ipi_comment="Step:           0  Bead:       0 forces_component_raw{ase}  cell{ase}" pbc="T T T"
H        0.00000000       0.00000000       0.00000000      -0.27970431       1.37139993       0.38688684
H        0.00000000       0.00000000       0.00000000       0.11533064       0.22056053       0.10598039
H        0.00000000       0.00000000       0.00000000       1.84710773      -0.04492461      -0.03279235
H        0.00000000       0.00000000       0.00000000       1.29594226      -0.58777923       0.58168335
H        0.00000000       0.00000000       0.00000000       1.27956876       0.10091781       0.33975391
H        0.00000000       0.00000000       0.00000000      -0.02405843       1.09780054      -0.99101960
H        0.00000000       0.00000000       0.00000000       0.12756856      -0.41261410      -0.30823231
H        0.00000000       0.00000000       0.00000000      -0.10759229      -0.08291119       0.05673597
H        0.00000000       0.00000000       0.00000000      -0.52944879      -0.26988828       0.02104271
O        0.00000000       0.00000000       0.00000000      -2.29804071      -2.13939539      -0.47343742
O        0.00000000       0.00000000       0.00000000      -1.68256725       0.36649840      -0.56122606
O        0.00000000       0.00000000       0.00000000      -0.37975304      -0.03413932       0.99094389
O        0.00000000       0.00000000       0.00000000       0.63564689       0.41447491      -0.11631931
13
Lattice="529.1772105638412 0.0 0.0 0.0 529.1772105638412 0.0 0.0 0.0 529.1772105638412" Properties=species:S:1:pos:R:3:forces_component_raw:R:3 ipi_comment="Step:          20  Bead:       0 forces_component_raw{ase}  cell{ase}" pbc="T T T"
H        0.00000000       0.00000000       0.00000000      -0.42046978      -3.44655769      -0.27042157
H        0.00000000       0.00000000       0.00000000       0.82321678       1.06719468      -1.30305458
H        0.00000000       0.00000000       0.00000000      -5.05269291      -0.50011160       0.89017867
H        0.00000000       0.00000000       0.00000000      -0.74712026      -1.23289915      -0.20652098
H        0.00000000       0.00000000       0.00000000      -1.48103307      -0.10141863      -0.43554119
H        0.00000000       0.00000000       0.00000000      -0.23473579      -0.15868286      -0.30784640
H        0.00000000       0.00000000       0.00000000       0.17927104      -0.37676265      -0.77102254
H        0.00000000       0.00000000       0.00000000       0.31904460      -0.36352483       1.27592254
H        0.00000000       0.00000000       0.00000000      -0.20610253      -0.11311025       0.02512784
O        0.00000000       0.00000000       0.00000000      -0.36847173      -1.30095636       1.55968134
O        0.00000000       0.00000000       0.00000000       6.62422230       1.53743713      -0.18097312
O        0.00000000       0.00000000       0.00000000       0.33629096       4.29337953       1.30594665
O        0.00000000       0.00000000       0.00000000       0.22858040       0.69601268      -1.58147666
13
Lattice="529.1772105638412 0.0 0.0 0.0 529.1772105638412 0.0 0.0 0.0 529.1772105638412" Properties=species:S:1:pos:R:3:forces_component_raw:R:3 ipi_comment="Step:          40  Bead:       0 forces_component_raw{ase}  cell{ase}" pbc="T T T"
H        0.00000000       0.00000000       0.00000000      -0.15373803       0.69262112       0.27142567
H        0.00000000       0.00000000       0.00000000      -0.23137864      -0.50598120       0.48017837
H        0.00000000       0.00000000       0.00000000       0.26314700      -0.14252386      -0.25257954
H        0.00000000       0.00000000       0.00000000       1.73147123      -0.87949850      -0.11561645
H        0.00000000       0.00000000       0.00000000       0.07814508      -1.11289160      -0.40080159
H        0.00000000       0.00000000       0.00000000       0.08850881       0.19012937      -0.14081762
H        0.00000000       0.00000000       0.00000000      -0.08074790       0.20329925       0.39599890
H        0.00000000       0.00000000       0.00000000       0.67072445      -0.49712631       1.57485946
H        0.00000000       0.00000000       0.00000000      -0.11596328      -0.04129116       0.13401518
O        0.00000000       0.00000000       0.00000000       0.15477664       0.00145936      -0.05658091
O        0.00000000       0.00000000       0.00000000      -1.82152062       1.82090284       0.64952147
O        0.00000000       0.00000000       0.00000000      -0.14193399      -0.57590240      -0.46750067
O        0.00000000       0.00000000       0.00000000      -0.44149073       0.84680307      -2.07210227
13
Lattice="529.1772105638412 0.0 0.0 0.0 529.1772105638412 0.0 0.0 0.0 529.1772105638412" Properties=species:S:1:pos:R:3:forces_component_raw:R:3 ipi_comment="Step:          60  Bead:       0 forces_component_raw{ase}  cell{ase}" pbc="T T T"
H        0.00000000       0.00000000       0.00000000      -0.13402315       0.11947272       0.47298215
H        0.00000000       0.00000000       0.00000000      -1.15367878      -0.73123652       1.33169968
H        0.00000000       0.00000000       0.00000000       0.74014398      -0.04812208       0.32248148
H        0.00000000       0.00000000       0.00000000       0.31165157      -0.50285100      -0.31105233
H        0.00000000       0.00000000       0.00000000      -0.55953763       0.28579687       0.15633166
H        0.00000000       0.00000000       0.00000000      -0.12451970       0.49383389       0.78816731
H        0.00000000       0.00000000       0.00000000      -0.20840610       0.46673683      -0.17603112
H        0.00000000       0.00000000       0.00000000      -0.46993314      -1.28635548       0.95023771
H        0.00000000       0.00000000       0.00000000       0.14279957      -0.75727393       1.18996166
O        0.00000000       0.00000000       0.00000000      -0.04550344       0.51979889      -1.37933511
O        0.00000000       0.00000000       0.00000000       0.59426686      -0.04280432      -0.09206598
O        0.00000000       0.00000000       0.00000000       0.23708048      -0.55274995      -0.99791448
O        0.00000000       0.00000000       0.00000000       0.66965948       2.03575408      -2.25546264
13
Lattice="529.1772105638412 0.0 0.0 0.0 529.1772105638412 0.0 0.0 0.0 529.1772105638412" Properties=species:S:1:pos:R:3:forces_component_raw:R:3 ipi_comment="Step:          80  Bead:       0 forces_component_raw{ase}  cell{ase}" pbc="T T T"
H        0.00000000       0.00000000       0.00000000       0.21019288      -2.16129360      -0.44979515
H        0.00000000       0.00000000       0.00000000       0.54993258       0.88778915      -0.96276922
H        0.00000000       0.00000000       0.00000000      -2.61875373       0.54919779       0.06845185
H        0.00000000       0.00000000       0.00000000      -0.22566669       0.40436452       0.33352727
H        0.00000000       0.00000000       0.00000000      -0.10970571       0.00094294      -0.07605428
H        0.00000000       0.00000000       0.00000000       0.63252460      -1.71885768       0.42656056
H        0.00000000       0.00000000       0.00000000       0.29530146      -0.80630736       0.60729723
H        0.00000000       0.00000000       0.00000000       0.51258437       1.17359844      -0.17609221
H        0.00000000       0.00000000       0.00000000      -0.27816455       0.84134627      -0.86575741
O        0.00000000       0.00000000       0.00000000      -0.09114777       0.29847429       0.89388918
O        0.00000000       0.00000000       0.00000000       1.78348441      -0.60762166      -0.21541845
O        0.00000000       0.00000000       0.00000000      -0.55895266       3.12912323      -0.56010027
O        0.00000000       0.00000000       0.00000000      -0.10162919      -1.99075633       0.97626091
13
Lattice="529.1772105638412 0.0 0.0 0.0 529.1772105638412 0.0 0.0 0.0 529.1772105638412" Properties=species:S:1:pos:R:3:forces_component_raw:R:3 ipi_comment="Step:         100  Bead:       0 forces_component_raw{ase}  cell{ase}" pbc="T T T"
H        0.00000000       0.00000000       0.00000000       0.59026113      -0.10614691       0.54619734
H        0.00000000       0.00000000       0.00000000      -0.37356508      -0.78024485       1.53411382
H        0.00000000       0.00000000       0.00000000      -0.75097155       0.43526898      -0.57464243
H        0.00000000       0.00000000       0.00000000      -1.15635495      -0.24353464       0.37656437
H        0.00000000       0.00000000       0.00000000      -0.30476493       0.34352001       0.76607687
H        0.00000000       0.00000000       0.00000000       0.09992803       0.81235519       0.63276549
H        0.00000000       0.00000000       0.00000000      -0.06373947       0.29720028      -0.07777461
H        0.00000000       0.00000000       0.00000000      -1.29390539      -0.70047119      -0.40330208
H        0.00000000       0.00000000       0.00000000      -0.33249411      -1.49552466       0.90451273
O        0.00000000       0.00000000       0.00000000       0.03541658       0.72904340      -0.66552524
O        0.00000000       0.00000000       0.00000000       2.00467363      -0.18157345      -0.79877713
O        0.00000000       0.00000000       0.00000000      -0.27188638      -1.28475247      -1.09410381
O        0.00000000       0.00000000       0.00000000       1.81740248       2.17486030      -1.14610532
13
Lattice="529.1772105638412 0.0 0.0 0.0 529.1772105638412 0.0 0.0 0.0 529.1772105638412" Properties=species:S:1:pos:R:3:forces_component_raw:R:3 ipi_comment="Step:         120  Bead:       0 forces_component_raw{ase}  cell{ase}" pbc="T T T"
H        0.00000000       0.00000000       0.00000000      -0.12739607       0.75014082      -0.41205141
H        0.00000000       0.00000000       0.00000000      -1.26703392      -1.32497022       0.94827910
H        0.00000000       0.00000000       0.00000000       1.08418052       0.18204401       1.12791188
H        0.00000000       0.00000000       0.00000000       0.91986178       0.60153399       1.38278247
H        0.00000000       0.00000000       0.00000000       0.70152747      -0.02158122      -0.65378143
H        0.00000000       0.00000000       0.00000000       0.01364757       0.38681238       0.03692177
H        0.00000000       0.00000000       0.00000000       0.01594844       0.45986555      -0.02311059
H        0.00000000       0.00000000       0.00000000      -0.53504787       0.52457038      -0.24629595
H        0.00000000       0.00000000       0.00000000      -0.77895125      -0.74472891      -0.33525164
O        0.00000000       0.00000000       0.00000000      -0.80342602      -0.20978632      -0.34368537
O        0.00000000       0.00000000       0.00000000      -1.31938040      -0.78509243      -1.54617354
O        0.00000000       0.00000000       0.00000000      -0.19621374      -0.65072278       0.08427923
O        0.00000000       0.00000000       0.00000000       2.29228349       0.83191475      -0.01982453
13
Lattice="529.1772105638412 0.0 0.0 0.0 529.1772105638412 0.0 0.0 0.0 529.1772105638412" Properties=species:S:1:pos:R:3:forces_component_raw:R:3 ipi_comment="Step:         140  Bead:       0 forces_component_raw{ase}  cell{ase}" pbc="T T T"
H        0.00000000       0.00000000       0.00000000       0.42396016      -0.26167311       0.61782990
H        0.00000000       0.00000000       0.00000000       0.57228948       0.58469161       1.16580154
H        0.00000000       0.00000000       0.00000000       0.20367065      -0.67935364      -0.62753755
H        0.00000000       0.00000000       0.00000000      -0.71371731      -0.19723331       0.28278284
H        0.00000000       0.00000000       0.00000000       0.12617227      -0.25066757       0.23266963
H        0.00000000       0.00000000       0.00000000      -0.39958212       1.09399280      -0.17888842
H        0.00000000       0.00000000       0.00000000      -0.18723967       0.53293719      -0.63440051
H        0.00000000       0.00000000       0.00000000      -0.05657617       0.10791561      -1.00289571
H        0.00000000       0.00000000       0.00000000      -0.34696641      -0.36148290       0.60817454
O        0.00000000       0.00000000       0.00000000       0.14249295      -0.77575039       0.04407749
O        0.00000000       0.00000000       0.00000000      -0.36677335       1.01899502       0.07427500
O        0.00000000       0.00000000       0.00000000       0.30705414      -0.99068303       0.53048299
O        0.00000000       0.00000000       0.00000000       0.29521540       0.17831172      -1.11237173
13
Lattice="529.1772105638412 0.0 0.0 0.0 529.1772105638412 0.0 0.0 0.0 529.1772105638412" Properties=species:S:1:pos:R:3:forces_component_raw:R:3 ipi_comment="Step:         160  Bead:       0 forces_component_raw{ase}  cell{ase}" pbc="T T T"
H        0.00000000       0.00000000       0.00000000       0.78287372      -2.22761412       0.54287085
H        0.00000000       0.00000000       0.00000000      -0.37151598       0.41539158      -1.24010780
H        0.00000000       0.00000000       0.00000000      -0.75868602       0.88924224       0.74599165
H        0.00000000       0.00000000       0.00000000       0.41351388       0.04713741      -0.18499627
H        0.00000000       0.00000000       0.00000000      -0.34688407      -0.12325121      -0.27815602
H        0.00000000       0.00000000       0.00000000       0.09942469      -0.61228135      -0.98324340
H        0.00000000       0.00000000       0.00000000       0.23110801      -1.16044522       0.22276428
H        0.00000000       0.00000000       0.00000000       0.01633230       0.14958998      -0.14739713
H        0.00000000       0.00000000       0.00000000      -0.17537088      -0.03906672      -0.70638997
O        0.00000000       0.00000000       0.00000000       0.76549761       0.17297895       0.38383374
O        0.00000000       0.00000000       0.00000000      -1.00005484      -0.12402309      -0.05028853
O        0.00000000       0.00000000       0.00000000      -0.50731660       2.51164983       0.64043010
O        0.00000000       0.00000000       0.00000000       0.85107818       0.10069173       1.05468849
13
Lattice="529.1772105638412 0.0 0.0 0.0 529.1772105638412 0.0 0.0 0.0 529.1772105638412" Properties=species:S:1:pos:R:3:forces_component_raw:R:3 ipi_comment="Step:         180  Bead:       0 forces_component_raw{ase}  cell{ase}" pbc="T T T"
H        0.00000000       0.00000000       0.00000000       0.03630793      -0.92972047      -0.36639590
H        0.00000000       0.00000000       0.00000000       1.37378394       0.06472860       0.02579478
H        0.00000000       0.00000000       0.00000000      -1.56151399       0.58682799      -0.55772566
H        0.00000000       0.00000000       0.00000000       0.46425252       0.53004575      -0.74446563
H        0.00000000       0.00000000       0.00000000      -0.02237471       0.01008726      -0.81269784
H        0.00000000       0.00000000       0.00000000       0.02675441       0.13647517       0.29450815
H        0.00000000       0.00000000       0.00000000       0.00740351       0.09399423      -1.03407507
H        0.00000000       0.00000000       0.00000000       0.44687062       0.07047245       1.26569258
H        0.00000000       0.00000000       0.00000000       0.41598245       0.07335968       0.14262900
O        0.00000000       0.00000000       0.00000000      -0.63957788       0.12900564      -0.10111233
O        0.00000000       0.00000000       0.00000000       0.98307357      -1.02632437       2.04961145
O        0.00000000       0.00000000       0.00000000      -0.13038062       0.46144143       1.10299114
O        0.00000000       0.00000000       0.00000000      -1.40058175      -0.20039337      -1.26475468
13
Lattice="529.1772105638412 0.0 0.0 0.0 529.1772105638412 0.0 0.0 0.0 529.1772105638412" Properties=species:S:1:pos:R:3:forces_component_raw:R:3 ipi_comment="Step:         200  Bead:       0 forces_component_raw{ase}  cell{ase}" pbc="T T T"
H        0.00000000       0.00000000       0.00000000       0.10908921      -0.55070387       0.60299587
H        0.00000000       0.00000000       0.00000000      -0.75486739       0.20949454       0.04639146
H        0.00000000       0.00000000       0.00000000      -0.37690961      -0.27357819       0.16992376
H        0.00000000       0.00000000       0.00000000       1.23678824       0.46109271      -1.05305237
H        0.00000000       0.00000000       0.00000000      -0.23180701      -0.09198464      -0.24762931
H        0.00000000       0.00000000       0.00000000       0.12325126      -0.46871483       0.19022859
H        0.00000000       0.00000000       0.00000000       0.29552952      -0.73517845       0.29357978
H        0.00000000       0.00000000       0.00000000       0.03475253       0.30971131       1.79742521
H        0.00000000       0.00000000       0.00000000       0.84431629       0.23802544       0.01163068
O        0.00000000       0.00000000       0.00000000       0.25197846       0.79907246      -0.57663384
O        0.00000000       0.00000000       0.00000000      -0.84508196       0.02217658       1.08669635
O        0.00000000       0.00000000       0.00000000      -0.28372257       0.58564917      -0.86185392
O        0.00000000       0.00000000       0.00000000      -0.40331698      -0.50506223      -1.45970228
13
Lattice="529.1772105638412 0.0 0.0 0.0 529.1772105638412 0.0 0.0 0.0 529.1772105638412" Properties=species:S:1:pos:R:3:forces_component_raw:R:3 ipi_comment="Step:         220  Bead:       0 forces_component_raw{ase}  cell{ase}" pbc="T T T"
H        0.00000000       0.00000000       0.00000000       0.00119648       1.04488477      -0.93543864
H        0.00000000       0.00000000       0.00000000       0.24785818       0.52975492       0.53331242
H        0.00000000       0.00000000       0.00000000      -0.08009067       0.46068663       0.16564024
H        0.00000000       0.00000000       0.00000000       1.21496310       0.42969067      -0.35815416
H        0.00000000       0.00000000       0.00000000       0.54218323       0.10783273      -0.11524124
H        0.00000000       0.00000000       0.00000000       0.27605816       0.06410028       0.78516262
H        0.00000000       0.00000000       0.00000000       0.10617048       0.46285120      -0.27206662
H        0.00000000       0.00000000       0.00000000       0.10316444      -0.05853381      -0.01265396
H        0.00000000       0.00000000       0.00000000       0.92014044      -0.35743285       0.53867719
O        0.00000000       0.00000000       0.00000000      -0.22078370       0.00053062      -0.40519936
O        0.00000000       0.00000000       0.00000000      -1.62937300      -0.57144253       0.43535215
O        0.00000000       0.00000000       0.00000000       0.01249462      -2.11138828       0.16654237
O        0.00000000       0.00000000       0.00000000      -1.49398176      -0.00153433      -0.52593302
13
Lattice="529.1772105638412 0.0 0.0 0.0 529.1772105638412 0.0 0.0 0.0 529.1772105638412" Properties=species:S:1:pos:R:3:forces_component_raw:R:3 ipi_comment="Step:         240  Bead:       0 forces_component_raw{ase}  cell{ase}" pbc="T T T"
H        0.00000000       0.00000000       0.00000000       0.08267230       0.43483039       0.62750823
H        0.00000000       0.00000000       0.00000000      -0.17281149      -0.41733050       0.17609681
H        0.00000000       0.00000000       0.00000000      -1.73358339       0.52699153       0.14884395
H        0.00000000       0.00000000       0.00000000       0.07506343      -0.03196033       0.20497151
H        0.00000000       0.00000000       0.00000000       0.66406062      -0.27270329       0.54430041
H        0.00000000       0.00000000       0.00000000      -0.20849561      -0.21901616       0.54209305
H        0.00000000       0.00000000       0.00000000       0.26734517       0.14485589       0.38543276
H        0.00000000       0.00000000       0.00000000      -0.30268671      -0.59491198      -0.93052968
H        0.00000000       0.00000000       0.00000000      -0.15934065      -0.14341705       0.83424384
O        0.00000000       0.00000000       0.00000000      -0.12882507      -0.01125923      -0.12356881
O        0.00000000       0.00000000       0.00000000       1.30601354      -0.27466594      -0.82866734
O        0.00000000       0.00000000       0.00000000      -0.07079825      -0.21774724      -1.38155088
O        0.00000000       0.00000000       0.00000000       0.38138610       1.07633392      -0.19917385
13
Lattice="529.1772105638412 0.0 0.0 0.0 529.1772105638412 0.0 0.0 0.0 529.1772105638412" Properties=species:S:1:pos:R:3:forces_component_raw:R:3 ipi_comment="Step:         260  Bead:       0 forces_component_raw{ase}  cell{ase}" pbc="T T T"
H        0.00000000       0.00000000       0.00000000       0.16511529      -0.55345750      -0.02772091
H        0.00000000       0.00000000       0.00000000       0.30938608       0.33507983      -0.65805813
H        0.00000000       0.00000000       0.00000000      -0.53015886      -0.53787458       0.70024367
H        0.00000000       0.00000000       0.00000000      -1.12716981      -0.12386802      -0.12438342
H        0.00000000       0.00000000       0.00000000      -0.67343075      -0.66785442       0.79456003
H        0.00000000       0.00000000       0.00000000       0.01702704      -0.26371817       0.18774459
H        0.00000000       0.00000000       0.00000000       0.33723546       0.91037905       0.50379988
H        0.00000000       0.00000000       0.00000000       0.09192419      -0.79084746      -1.87148222
H        0.00000000       0.00000000       0.00000000      -0.67881545      -0.13974434       0.12535420
O        0.00000000       0.00000000       0.00000000       0.49857994      -0.56279439       1.14969212
O        0.00000000       0.00000000       0.00000000       0.85716403       1.41451225      -1.11721210
O        0.00000000       0.00000000       0.00000000      -0.25321460      -0.10385820      -0.47341982
O        0.00000000       0.00000000       0.00000000       0.98635742       1.08404597       0.81088213
13
Lattice="529.1772105638412 0.0 0.0 0.0 529.1772105638412 0.0 0.0 0.0 529.1772105638412" Properties=species:S:1:pos:R:3:forces_component_raw:R:3 ipi_comment="Step:         280  Bead:       0 forces_component_raw{ase}  cell{ase}" pbc="T T T"
H        0.00000000       0.00000000       0.00000000       0.20297574       0.82296255       0.09419349
H        0.00000000       0.00000000       0.00000000       0.06484745      -0.00197842       0.54606198
H        0.00000000       0.00000000       0.00000000       0.94648665       0.93928863      -0.24055360
H        0.00000000       0.00000000       0.00000000      -0.60046879      -1.06096575       0.59565330
H        0.00000000       0.00000000       0.00000000       1.29980276      -0.34696039       0.56591961
H        0.00000000       0.00000000       0.00000000       0.09164699       0.98746274      -0.27350247
H        0.00000000       0.00000000       0.00000000       0.38781233       1.29190553       0.01621007
H        0.00000000       0.00000000       0.00000000      -0.81886257      -0.98241217      -1.61714470
H        0.00000000       0.00000000       0.00000000      -0.21588662      -0.03972158       0.59551488
O        0.00000000       0.00000000       0.00000000       0.15966612      -0.97388069      -0.90348267
O        0.00000000       0.00000000       0.00000000      -1.73262155       0.77739880      -0.81399985
O        0.00000000       0.00000000       0.00000000      -0.47331205      -2.19953534       0.07265190
O        0.00000000       0.00000000       0.00000000       0.68791352       0.78643611       1.36247806
13
Lattice="529.1772105638412 0.0 0.0 0.0 529.1772105638412 0.0 0.0 0.0 529.1772105638412" Properties=species:S:1:pos:R:3:forces_component_raw:R:3 ipi_comment="Step:         300  Bead:       0 forces_component_raw{ase}  cell{ase}" pbc="T T T"
H        0.00000000       0.00000000       0.00000000      -0.27153842       0.79037901      -0.45650628
H        0.00000000       0.00000000       0.00000000      -0.49161370      -0.65101558       0.18238747
H        0.00000000       0.00000000       0.00000000       0.68683055      -1.15133543       0.27006091
H        0.00000000       0.00000000       0.00000000      -0.13801668      -0.86500124      -0.42722922
H        0.00000000       0.00000000       0.00000000      -0.32653979      -0.57277409       0.32504013
H        0.00000000       0.00000000       0.00000000      -0.21769720       0.57824755      -0.66850011
H        0.00000000       0.00000000       0.00000000       0.15727746       1.01058393       0.13368933
H        0.00000000       0.00000000       0.00000000      -1.07702609      -0.77783955      -0.94424776
H        0.00000000       0.00000000       0.00000000       0.02568730      -0.00587361      -0.27989090
O        0.00000000       0.00000000       0.00000000       0.47958349      -0.93718521      -0.64968425
O        0.00000000       0.00000000       0.00000000      -0.21183790       2.58224177      -0.03500290
O        0.00000000       0.00000000       0.00000000       0.12275240      -1.00070466       0.53420290
O        0.00000000       0.00000000       0.00000000       1.26213859       1.00027711       2.01568070
13
Lattice="529.1772105638412 0.0 0.0 0.0 529.1772105638412 0.0 0.0 0.0 529.1772105638412" Properties=species:S:1:pos:R:3:forces_component_raw:R:3 ipi_comment="Step:         320  Bead:       0 forces_component_raw{ase}  cell{ase}" pbc="T T T"
H        0.00000000       0.00000000       0.00000000      -0.40396102       0.11942368       0.28866059
H        0.00000000       0.00000000       0.00000000       0.23289641       0.79563717       1.18869042
H        0.00000000       0.00000000       0.00000000       1.19212444       1.19951932      -0.47040187
H        0.00000000       0.00000000       0.00000000       0.12133800      -0.60537919       0.44479712
H        0.00000000       0.00000000       0.00000000       1.21234536       0.69721780      -0.09269874
H        0.00000000       0.00000000       0.00000000      -0.20978372       0.80561632      -0.83426363
H        0.00000000       0.00000000       0.00000000      -0.04928412       0.19755405      -0.53074718
H        0.00000000       0.00000000       0.00000000      -0.88821909      -0.69196213      -0.48773861
H        0.00000000       0.00000000       0.00000000       0.52674917       0.73526321       0.59601317
O        0.00000000       0.00000000       0.00000000      -0.91020869      -0.74746773      -0.43429753
O        0.00000000       0.00000000       0.00000000      -1.56551007      -1.14789561       0.11074124
O        0.00000000       0.00000000       0.00000000       0.38601932      -0.91750032       1.21622868
O        0.00000000       0.00000000       0.00000000       0.35549402      -0.44002658      -0.99498368
13
Lattice="529.1772105638412 0.0 0.0 0.0 529.1772105638412 0.0 0.0 0.0 529.1772105638412" Properties=species:S:1:pos:R:3:forces_component_raw:R:3 ipi_comment="Step:         340  Bead:       0 forces_component_raw{ase}  cell{ase}" pbc="T T T"
H        0.00000000       0.00000000       0.00000000       0.17669824      -0.04830282      -0.20653010
H        0.00000000       0.00000000       0.00000000       0.50044809      -0.17166016      -1.78365136
H        0.00000000       0.00000000       0.00000000      -0.32371033      -0.90931452       0.40510419
H        0.00000000       0.00000000       0.00000000       0.91813345      -0.00440337       0.22036392
H        0.00000000       0.00000000       0.00000000      -0.20345490       0.84260102      -0.23778187
H        0.00000000       0.00000000       0.00000000      -0.31883523      -0.22911843      -0.43015718
H        0.00000000       0.00000000       0.00000000       0.13168534      -0.65759342       0.30682427
H        0.00000000       0.00000000       0.00000000      -0.45989780       0.49639962      -0.35934495
H        0.00000000       0.00000000       0.00000000       0.16823599       1.03819514      -0.83950774
O        0.00000000       0.00000000       0.00000000      -1.20293716       1.15834020       0.07489195
O        0.00000000       0.00000000       0.00000000       0.16374585      -0.25087117       0.02514892
O        0.00000000       0.00000000       0.00000000       0.40261817      -0.06254735       0.46947959
O        0.00000000       0.00000000       0.00000000       0.04727029      -1.20172474       2.35516036
13
Lattice="529.1772105638412 0.0 0.0 0.0 529.1772105638412 0.0 0.0 0.0 529.1772105638412" Properties=species:S:1:pos:R:3:forces_component_raw:R:3 ipi_comment="Step:         360  Bead:       0 forces_component_raw{ase}  cell{ase}" pbc="T T T"
H        0.00000000       0.00000000       0.00000000      -0.06715872      -0.20427101       0.09976565
H        0.00000000       0.00000000       0.00000000       0.14629489       0.69893419       0.87898023
H        0.00000000       0.00000000       0.00000000      -0.41199382       0.80676225       0.73289634
H        0.00000000       0.00000000       0.00000000       0.47972924      -0.15917482       0.51329881
H        0.00000000       0.00000000       0.00000000       0.80119548       1.33922998       0.23269472
H        0.00000000       0.00000000       0.00000000       0.30934258       0.30666318       0.07218388
H        0.00000000       0.00000000       0.00000000      -0.54480457      -0.62306916      -0.49141673