13
Lattice="529.1772105638412 0.0 0.0 0.0 529.1772105638412 0.0 0.0 0.0 529.1772105638412" Properties=species:S:1:pos:R:3:forces_component_raw:R:3 ipi_comment="Step:           0  Bead:       0 forces_component_raw{ase}  cell{ase}" pbc="T T T"
H        0.00000000       0.00000000       0.00000000      -0.32753387       1.34999233       0.24342019
H        0.00000000       0.00000000       0.00000000      -0.04319731      -0.02630445       0.01427068
H        0.00000000       0.00000000       0.00000000       1.77165022      -0.18767307      -0.05914196
H        0.00000000       0.00000000       0.00000000       0.57957229      -0.43614551       0.24172104
H        0.00000000       0.00000000       0.00000000       0.31946460      -0.00652059       0.03103271
H        0.00000000       0.00000000       0.00000000      -0.02062006       0.27078582      -0.65994954
H        0.00000000       0.00000000       0.00000000       0.11359489      -0.72362459      -0.37623666
H        0.00000000       0.00000000       0.00000000       0.05301602       0.09371370      -0.25024357
H        0.00000000       0.00000000       0.00000000      -0.40345349      -0.11637814      -0.28254477
O        0.00000000       0.00000000       0.00000000      -1.56975907      -1.35470215       0.38765671
O        0.00000000       0.00000000       0.00000000      -1.02732741       0.27583512      -0.10778840
O        0.00000000       0.00000000       0.00000000      -0.23786884       0.33322337       0.86396436
O        0.00000000       0.00000000       0.00000000       0.79246202       0.52779813      -0.04616079
13
Lattice="529.1772105638412 0.0 0.0 0.0 529.1772105638412 0.0 0.0 0.0 529.1772105638412" Properties=species:S:1:pos:R:3:forces_component_raw:R:3 ipi_comment="Step:          20  Bead:       0 forces_component_raw{ase}  cell{ase}" pbc="T T T"
H        0.00000000       0.00000000       0.00000000      -0.14903375      -0.65948959      -0.28469866
H        0.00000000       0.00000000       0.00000000      -0.27464842      -0.07389609       0.45717477
H        0.00000000       0.00000000       0.00000000      -0.65119914      -0.32575472       0.18779105
H        0.00000000       0.00000000       0.00000000      -0.05405415      -0.85140493      -0.02383843
H        0.00000000       0.00000000       0.00000000      -0.81067576      -0.67985582      -0.44691857
H        0.00000000       0.00000000       0.00000000      -0.23199228       0.45825151      -0.64531758
H        0.00000000       0.00000000       0.00000000       0.06058583      -0.14371860      -0.78748430
H        0.00000000       0.00000000       0.00000000       0.44236479      -0.26771861       1.10108698
H        0.00000000       0.00000000       0.00000000      -0.10602715      -0.06733245      -0.07253363
O        0.00000000       0.00000000       0.00000000       0.81461179       0.11574096       0.34463013
O        0.00000000       0.00000000       0.00000000       0.82907353       1.54835801       0.29414534
O        0.00000000       0.00000000       0.00000000       0.02774061       0.17287699       1.63534205
O        0.00000000       0.00000000       0.00000000       0.10325409       0.77394333      -1.75937917
13
Lattice="529.1772105638412 0.0 0.0 0.0 529.1772105638412 0.0 0.0 0.0 529.1772105638412" Properties=species:S:1:pos:R:3:forces_component_raw:R:3 ipi_comment="Step:          40  Bead:       0 forces_component_raw{ase}  cell{ase}" pbc="T T T"
H        0.00000000       0.00000000       0.00000000      -0.38133074       0.67434589       0.07858197
H        0.00000000       0.00000000       0.00000000      -0.02366261      -0.15013153      -0.54048232
H        0.00000000       0.00000000       0.00000000       0.74115400      -0.04465933       0.05042854
H        0.00000000       0.00000000       0.00000000       0.44373806       0.44713208       0.09915622
H        0.00000000       0.00000000       0.00000000      -0.40360809      -1.71813333      -0.40424348
H        0.00000000       0.00000000       0.00000000      -0.04767530      -0.04679482       0.23454017
H        0.00000000       0.00000000       0.00000000       0.17674023      -0.31671917      -0.48277887
H        0.00000000       0.00000000       0.00000000       0.45835289      -0.40440123       0.95827149
H        0.00000000       0.00000000       0.00000000      -0.03026581       0.00943104      -0.13058834
O        0.00000000       0.00000000       0.00000000      -1.29221802      -1.35644159       1.08206449
O        0.00000000       0.00000000       0.00000000       0.56807789       1.00642355       0.24966636
O        0.00000000       0.00000000       0.00000000      -0.23179891       0.96687423       0.11938216
O        0.00000000       0.00000000       0.00000000       0.02249641       0.93307422      -1.31399840
13
Lattice="529.1772105638412 0.0 0.0 0.0 529.1772105638412 0.0 0.0 0.0 529.1772105638412" Properties=species:S:1:pos:R:3:forces_component_raw:R:3 ipi_comment="Step:          60  Bead:       0 forces_component_raw{ase}  cell{ase}" pbc="T T T"
H        0.00000000       0.00000000       0.00000000      -0.13547108      -0.28872007       0.14459242
H        0.00000000       0.00000000       0.00000000       0.04136671      -0.55187076       0.35357787
H        0.00000000       0.00000000       0.00000000      -0.35487493      -0.02203068      -0.31631342
H        0.00000000       0.00000000       0.00000000      -0.87069877       0.34407578       0.11391813
H        0.00000000       0.00000000       0.00000000      -1.44456526      -0.54072025       0.04756623
H        0.00000000       0.00000000       0.00000000       0.26377847      -0.52995246       0.45815843
H        0.00000000       0.00000000       0.00000000      -0.17586734      -0.12572147       0.42842261
H        0.00000000       0.00000000       0.00000000       0.32553922      -0.20566352       0.31669358
H        0.00000000       0.00000000       0.00000000      -0.06013172      -0.04525420       0.01187022
O        0.00000000       0.00000000       0.00000000       0.41480786       2.02050568      -0.77051046
O        0.00000000       0.00000000       0.00000000       3.19181967      -0.05269250      -0.13982864
O        0.00000000       0.00000000       0.00000000      -0.11987105       0.20595201      -1.06748418
O        0.00000000       0.00000000       0.00000000      -1.07583177      -0.20790756       0.41933720
13
Lattice="529.1772105638412 0.0 0.0 0.0 529.1772105638412 0.0 0.0 0.0 529.1772105638412" Properties=species:S:1:pos:R:3:forces_component_raw:R:3 ipi_comment="Step:          80  Bead:       0 forces_component_raw{ase}  cell{ase}" pbc="T T T"
H        0.00000000       0.00000000       0.00000000       0.24647154       0.01272161      -0.36217798
H        0.00000000       0.00000000       0.00000000      -0.45523430       0.60079015      -0.38076123
H        0.00000000       0.00000000       0.00000000       0.35933837       0.22463812      -0.35284874
H        0.00000000       0.00000000       0.00000000      -0.02782251       1.61913957       0.34850974
H        0.00000000       0.00000000       0.00000000      -0.11142403      -0.82094967      -0.24221539
H        0.00000000       0.00000000       0.00000000       0.04019482      -0.32511804       0.55386685
H        0.00000000       0.00000000       0.00000000      -0.70885306       0.67074864       0.61977338
H        0.00000000       0.00000000       0.00000000      -0.99082519       0.22075462      -0.27302579
H        0.00000000       0.00000000       0.00000000       0.37085479      -0.06548733       0.18997900
O        0.00000000       0.00000000       0.00000000       0.18331078       1.54193453      -0.74799942
O        0.00000000       0.00000000       0.00000000       0.77513002      -1.15179060      -0.07404646
O        0.00000000       0.00000000       0.00000000       0.35286939      -1.19498209      -0.88802090
O        0.00000000       0.00000000       0.00000000      -0.03401061      -1.33239950       1.60896694
13
Lattice="529.1772105638412 0.0 0.0 0.0 529.1772105638412 0.0 0.0 0.0 529.1772105638412" Properties=species:S:1:pos:R:3:forces_component_raw:R:3 ipi_comment="Step:         100  Bead:       0 forces_component_raw{ase}  cell{ase}" pbc="T T T"
H        0.00000000       0.00000000       0.00000000      -0.26330944       0.51661117       0.23537195
H        0.00000000       0.00000000       0.00000000       0.49333770      -0.56215152       0.38741552
H        0.00000000       0.00000000       0.00000000       0.31642276      -0.49883311       0.37699115
H        0.00000000       0.00000000       0.00000000      -1.14229215       0.79445363       1.21689902
H        0.00000000       0.00000000       0.00000000      -0.23125331       0.24359700       0.40893778
H        0.00000000       0.00000000       0.00000000       0.26053609      -0.09802563       0.56998851
H        0.00000000       0.00000000       0.00000000      -0.86490565       0.51415096       0.92046169
H        0.00000000       0.00000000       0.00000000      -0.75882991       1.36663531      -0.81313082
H        0.00000000       0.00000000       0.00000000       0.07809838       0.44273091      -0.04107037
O        0.00000000       0.00000000       0.00000000      -0.16932625      -0.43497121      -0.29448099
O        0.00000000       0.00000000       0.00000000       1.43560808      -1.00322177      -1.79256753
O        0.00000000       0.00000000       0.00000000       0.40413557       0.38601314      -1.82131915
O        0.00000000       0.00000000       0.00000000       0.44177812      -1.66698888       0.64650325
13
Lattice="529.1772105638412 0.0 0.0 0.0 529.1772105638412 0.0 0.0 0.0 529.1772105638412" Properties=species:S:1:pos:R:3:forces_component_raw:R:3 ipi_comment="Step:         120  Bead:       0 forces_component_raw{ase}  cell{ase}" pbc="T T T"
H        0.00000000       0.00000000       0.00000000       0.01244051      -0.59648450      -0.36012211
H        0.00000000       0.00000000       0.00000000      -0.67679282      -0.36504506      -0.55089235
H        0.00000000       0.00000000       0.00000000       0.36333289       0.21796883      -0.72335253
H        0.00000000       0.00000000       0.00000000      -0.79742747       1.42578238       0.55186453
H        0.00000000       0.00000000       0.00000000       0.50493643       0.36097571      -0.47002404
H        0.00000000       0.00000000       0.00000000      -0.09586404      -0.10885876       0.33044015
H        0.00000000       0.00000000       0.00000000      -0.66916152       0.50443047       0.48944948
H        0.00000000       0.00000000       0.00000000      -1.55978323       0.62103342      -0.54774644
H        0.00000000       0.00000000       0.00000000       0.81361929       0.09392086       0.09886501
O        0.00000000       0.00000000       0.00000000       0.11576817      -1.44946504       2.11334660
O        0.00000000       0.00000000       0.00000000      -0.18732743      -1.87001065       0.08088821
O        0.00000000       0.00000000       0.00000000       0.47131383       1.22596043      -0.75322968
O        0.00000000       0.00000000       0.00000000       1.70494539      -0.06020810      -0.25948682
13
Lattice="529.1772105638412 0.0 0.0 0.0 529.1772105638412 0.0 0.0 0.0 529.1772105638412" Properties=species:S:1:pos:R:3:forces_component_raw:R:3 ipi_comment="Step:         140  Bead:       0 forces_component_raw{ase}  cell{ase}" pbc="T T T"
H        0.00000000       0.00000000       0.00000000      -0.34514717      -0.04604213      -0.08233089
H        0.00000000       0.00000000       0.00000000       0.87721345       0.19736505       0.19593609
H        0.00000000       0.00000000       0.00000000      -0.26992593      -0.16350546       0.41413326
H        0.00000000       0.00000000       0.00000000      -0.75198154       0.14944355       0.33927693
H        0.00000000       0.00000000       0.00000000       0.59790153       1.69198232      -0.56698252
H        0.00000000       0.00000000       0.00000000       0.12908361      -0.28033409       0.08496936
H        0.00000000       0.00000000       0.00000000      -0.07207285      -0.11690395       0.19658186
H        0.00000000       0.00000000       0.00000000       0.43401878       0.69127623      -0.34690514
H        0.00000000       0.00000000       0.00000000       0.28776983       0.67803090       0.12977072
O        0.00000000       0.00000000       0.00000000      -0.10019783       0.14615113       0.58486817
O        0.00000000       0.00000000       0.00000000      -0.07991314      -1.75403862       0.03157127
O        0.00000000       0.00000000       0.00000000       0.16165656      -0.13858553      -0.27134754
O        0.00000000       0.00000000       0.00000000      -0.86840531      -1.05483940      -0.70954157
13
Lattice="529.1772105638412 0.0 0.0 0.0 529.1772105638412 0.0 0.0 0.0 529.1772105638412" Properties=species:S:1:pos:R:3:forces_component_raw:R:3 ipi_comment="Step:         160  Bead:       0 forces_component_raw{ase}  cell{ase}" pbc="T T T"
H        0.00000000       0.00000000       0.00000000       0.04303480       0.81527200      -0.00155843
H        0.00000000       0.00000000       0.00000000      -0.79803180       0.56136215      -0.63346416
H        0.00000000       0.00000000       0.00000000      -0.02117949       0.22354578       0.02907217
H        0.00000000       0.00000000       0.00000000       0.30656405       0.03156225      -0.20962669
H        0.00000000       0.00000000       0.00000000       1.20234523       1.34197940      -0.73340408
H        0.00000000       0.00000000       0.00000000       0.15125518      -0.11421504       0.08672838
H        0.00000000       0.00000000       0.00000000       0.22788145      -0.00574253      -0.23607930
H        0.00000000       0.00000000       0.00000000      -0.16142764      -0.52089142       0.42258395
H        0.00000000       0.00000000       0.00000000      -0.11855209      -0.23669494      -0.17214865
O        0.00000000       0.00000000       0.00000000      -0.07018283      -0.59293564       0.86095859
O        0.00000000       0.00000000       0.00000000      -1.56199846      -1.46423646       0.87151641
O        0.00000000       0.00000000       0.00000000      -0.32551598      -0.74635024       0.14130894
O        0.00000000       0.00000000       0.00000000       1.12580759       0.70734468      -0.42588714
13
Lattice="529.1772105638412 0.0 0.0 0.0 529.1772105638412 0.0 0.0 0.0 529.1772105638412" Properties=species:S:1:pos:R:3:forces_component_raw:R:3 ipi_comment="Step:         180  Bead:       0 forces_component_raw{ase}  cell{ase}" pbc="T T T"
H        0.00000000       0.00000000       0.00000000       0.07381710      -0.20465958      -0.27986315
H        0.00000000       0.00000000       0.00000000      -0.01609775      -0.95259533       0.87866455
H        0.00000000       0.00000000       0.00000000      -0.24798859      -0.12943339      -0.20292285
H        0.00000000       0.00000000       0.00000000       0.73118591      -2.01895413      -0.13088494
H        0.00000000       0.00000000       0.00000000       0.46972216       1.23427726      -0.25575532
H        0.00000000       0.00000000       0.00000000      -0.29702124       0.26721274      -0.69523812
H        0.00000000       0.00000000       0.00000000       0.48719542      -0.10790709      -0.81409873
H        0.00000000       0.00000000       0.00000000       1.06016480      -0.73754542       0.86037790
H        0.00000000       0.00000000       0.00000000      -0.58504131       0.18602129      -0.31512689
O        0.00000000       0.00000000       0.00000000       0.59929407       2.57066016      -1.19738459
O        0.00000000       0.00000000       0.00000000      -1.33975582       0.64249677       0.52681300
O        0.00000000       0.00000000       0.00000000       0.08006284      -1.09252364       1.61679822
O        0.00000000       0.00000000       0.00000000      -1.01553758       0.34295036       0.00862092
13
Lattice="529.1772105638412 0.0 0.0 0.0 529.1772105638412 0.0 0.0 0.0 529.1772105638412" Properties=species:S:1:pos:R:3:forces_component_raw:R:3 ipi_comment="Step:         200  Bead:       0 forces_component_raw{ase}  cell{ase}" pbc="T T T"
H        0.00000000       0.00000000       0.00000000      -0.26539154       0.06019220       0.40222723
H        0.00000000       0.00000000       0.00000000      -0.10282104       0.76064239      -0.58527795
H        0.00000000       0.00000000       0.00000000       0.48967960       0.31300197      -0.36758853
H        0.00000000       0.00000000       0.00000000       1.26705717      -1.53709254      -0.05650445
H        0.00000000       0.00000000       0.00000000       0.05810886      -0.30774021      -0.01342491
H        0.00000000       0.00000000       0.00000000       0.16041612      -0.20333225      -0.05623024
H        0.00000000       0.00000000       0.00000000       0.23189455      -0.24360357      -0.25553844
H        0.00000000       0.00000000       0.00000000       0.22864554      -1.21895357       1.32501735
H        0.00000000       0.00000000       0.00000000      -1.20888725      -0.58015236       0.11147108
O        0.00000000       0.00000000       0.00000000      -0.17090997       0.41663228      -0.01544856
O        0.00000000       0.00000000       0.00000000      -1.42706002       1.58713474       0.17501176
O        0.00000000       0.00000000       0.00000000      -0.04401187      -0.31411693       0.17330239
O        0.00000000       0.00000000       0.00000000       0.78327985       1.26738786      -0.83701674
13
Lattice="529.1772105638412 0.0 0.0 0.0 529.1772105638412 0.0 0.0 0.0 529.1772105638412" Properties=species:S:1:pos:R:3:forces_component_raw:R:3 ipi_comment="Step:         220  Bead:       0 forces_component_raw{ase}  cell{ase}" pbc="T T T"
H        0.00000000       0.00000000       0.00000000       0.41505010       0.34783361      -0.58129302
H        0.00000000       0.00000000       0.00000000       0.48338332      -0.28150218      -0.29129510
H        0.00000000       0.00000000       0.00000000      -0.29586557      -0.54796473       0.45958229
H        0.00000000       0.00000000       0.00000000      -0.21193730      -0.26364917       0.02203577
H        0.00000000       0.00000000       0.00000000      -0.85599317      -0.87568166       0.15619758
H        0.00000000       0.00000000       0.00000000       0.19456981      -0.53467797       0.40271637
H        0.00000000       0.00000000       0.00000000      -0.06444697       0.04660964       0.05407011
H        0.00000000       0.00000000       0.00000000       1.16834585      -0.58530660       0.68751352
H        0.00000000       0.00000000       0.00000000      -1.54349249       0.19925426      -0.68004309
O        0.00000000       0.00000000       0.00000000      -0.20564142      -0.03179563       0.58941554
O        0.00000000       0.00000000       0.00000000       0.66542681       1.45564342      -0.31446027
O        0.00000000       0.00000000       0.00000000      -0.23030623       0.51393397      -0.29302845
O        0.00000000       0.00000000       0.00000000       0.48090725       0.55730304      -0.21141124
13
Lattice="529.1772105638412 0.0 0.0 0.0 529.1772105638412 0.0 0.0 0.0 529.1772105638412" Properties=species:S:1:pos:R:3:forces_component_raw:R:3 ipi_comment="Step:         240  Bead:       0 forces_component_raw{ase}  cell{ase}" pbc="T T T"
H        0.00000000       0.00000000       0.00000000      -0.18575708      -0.68676015       0.46299569
H        0.00000000       0.00000000       0.00000000      -0.56144104       0.52020709      -0.15293085
H        0.00000000       0.00000000       0.00000000      -0.13960837       0.17004564      -0.72982566
H        0.00000000       0.00000000       0.00000000      -0.46191562       1.15338663      -0.45631516
H        0.00000000       0.00000000       0.00000000      -0.58804124      -0.98306761       0.41316018
H        0.00000000       0.00000000       0.00000000      -0.07767075       0.06719966       0.67554563
H        0.00000000       0.00000000       0.00000000      -0.16217377       0.60396818       0.53088264
H        0.00000000       0.00000000       0.00000000      -0.21979039      -0.29459750       0.07311645
H        0.00000000       0.00000000       0.00000000       0.07817576      -0.29597884       0.15826824
O        0.00000000       0.00000000       0.00000000       1.05337048      -1.59841213       1.38258181
O        0.00000000       0.00000000       0.00000000       0.82619058      -0.28999418       0.28146590
O        0.00000000       0.00000000       0.00000000      -0.35498236       0.72466626      -1.64437322
O        0.00000000       0.00000000       0.00000000       0.79364381       0.90933696      -0.99457167
13
Lattice="529.1772105638412 0.0 0.0 0.0 529.1772105638412 0.0 0.0 0.0 529.1772105638412" Properties=species:S:1:pos:R:3:forces_component_raw:R:3 ipi_comment="Step:         260  Bead:       0 forces_component_raw{ase}  cell{ase}" pbc="T T T"
H        0.00000000       0.00000000       0.00000000      -0.14633575       0.46550312      -0.66669325
H        0.00000000       0.00000000       0.00000000       0.69536736      -0.55692963      -0.15819117
H        0.00000000       0.00000000       0.00000000       0.25377625      -0.25937071       0.21949837
H        0.00000000       0.00000000       0.00000000      -1.48427787       1.32063486      -0.81015537
H        0.00000000       0.00000000       0.00000000      -0.66288251      -0.76850231       0.33833394
H        0.00000000       0.00000000       0.00000000       0.06389451      -0.40655693       0.58117054
H        0.00000000       0.00000000       0.00000000      -0.07025905       0.32180242       0.34894465
H        0.00000000       0.00000000       0.00000000      -0.37834555       0.71092945      -0.65990701
H        0.00000000       0.00000000       0.00000000       1.24513689       0.17006410       0.01418963
O        0.00000000       0.00000000       0.00000000      -0.93443291      -1.07315590       1.31105000
O        0.00000000       0.00000000       0.00000000       2.23881655      -0.52709091       0.37432468
O        0.00000000       0.00000000       0.00000000      -0.32191415       0.77819074      -0.76196151
O        0.00000000       0.00000000       0.00000000      -0.49854378      -0.17551830      -0.13060350
13
Lattice="529.1772105638412 0.0 0.0 0.0 529.1772105638412 0.0 0.0 0.0 529.1772105638412" Properties=species:S:1:pos:R:3:forces_component_raw:R:3 ipi_comment="Step:         280  Bead:       0 forces_component_raw{ase}  cell{ase}" pbc="T T T"
H        0.00000000       0.00000000       0.00000000      -0.21814598      -0.13458878       0.39166191
H        0.00000000       0.00000000       0.00000000      -0.63422382       0.05317773       0.17000017
H        0.00000000       0.00000000       0.00000000      -0.07586620       0.03421867      -0.29017895
H        0.00000000       0.00000000       0.00000000      -1.15813677       2.00337206      -1.63445334
H        0.00000000       0.00000000       0.00000000       0.00937429      -0.83961331       0.59865630
H        0.00000000       0.00000000       0.00000000      -0.10751650       0.18981491      -0.14071300
H        0.00000000       0.00000000       0.00000000       0.16037060      -0.28513143      -0.15236705
H        0.00000000       0.00000000       0.00000000      -0.95842726       1.08629912      -0.27900168
H        0.00000000       0.00000000       0.00000000       0.80854984       0.12353865      -0.16872882
O        0.00000000       0.00000000       0.00000000       0.54411099       0.66456830      -0.23982114
O        0.00000000       0.00000000       0.00000000       0.79932887      -1.23007178       1.26946206
O        0.00000000       0.00000000       0.00000000       0.27170044      -0.21102126      -0.02017770
O        0.00000000       0.00000000       0.00000000       0.55888149      -1.45456289       0.49566122
13
Lattice="529.1772105638412 0.0 0.0 0.0 529.1772105638412 0.0 0.0 0.0 529.1772105638412" Properties=species:S:1:pos:R:3:forces_component_raw:R:3 ipi_comment="Step:         300  Bead:       0 forces_component_raw{ase}  cell{ase}" pbc="T T T"
H        0.00000000       0.00000000       0.00000000       0.31835644       0.02178341      -0.50658955
H        0.00000000       0.00000000       0.00000000       0.58849084      -0.54065960       0.05044732
H        0.00000000       0.00000000       0.00000000       0.06827450       0.18240710       0.13856482
H        0.00000000       0.00000000       0.00000000      -1.69093954       0.87127967      -1.05159062
H        0.00000000       0.00000000       0.00000000      -0.74256753      -0.32584388       0.07381867
H        0.00000000       0.00000000       0.00000000      -0.00951569       0.56385869      -1.55529410
H        0.00000000       0.00000000       0.00000000      -0.25186979      -0.32373373      -0.32064440
H        0.00000000       0.00000000       0.00000000      -0.48444816       1.86702779      -0.18794058
H        0.00000000       0.00000000       0.00000000       1.17597264      -0.00994707       0.10113398
O        0.00000000       0.00000000       0.00000000      -0.71967878       1.36919616      -0.33597971
O        0.00000000       0.00000000       0.00000000       1.86925709      -0.64946621       1.04672360
O        0.00000000       0.00000000       0.00000000       0.93393359      -0.99203595       2.18991461
O        0.00000000       0.00000000       0.00000000      -1.05526562      -2.03386639       0.35743595
13
Lattice="529.1772105638412 0.0 0.0 0.0 529.1772105638412 0.0 0.0 0.0 529.1772105638412" Properties=species:S:1:pos:R:3:forces_component_raw:R:3 ipi_comment="Step:         320  Bead:       0 forces_component_raw{ase}  cell{ase}" pbc="T T T"
H        0.00000000       0.00000000       0.00000000      -0.24298382       0.22415193       0.22632575
H        0.00000000       0.00000000       0.00000000      -0.59539276       0.22212485      -0.05009516
H        0.00000000       0.00000000       0.00000000       0.40253040      -0.01255560      -0.28001873
H        0.00000000       0.00000000       0.00000000      -0.35887505       0.74812240      -0.65408693
H        0.00000000       0.00000000       0.00000000       0.68756968       0.59775637      -0.13347710
H        0.00000000       0.00000000       0.00000000      -0.26126363       1.10116739      -2.22895024
H        0.00000000       0.00000000       0.00000000      -0.23669655      -0.07872854      -0.11796518
H        0.00000000       0.00000000       0.00000000      -0.27448498       1.61555311       0.42364698
H        0.00000000       0.00000000       0.00000000       1.00498175      -0.49381447       0.20141608
O        0.00000000       0.00000000       0.00000000       0.06342690       0.36183041      -0.16784170
O        0.00000000       0.00000000       0.00000000      -0.87876640      -1.24194127       1.01846087
O        0.00000000       0.00000000       0.00000000       1.18842411      -1.73568771       2.36146615
O        0.00000000       0.00000000       0.00000000      -0.49846965      -1.30797888      -0.59888078
13
Lattice="529.1772105638412 0.0 0.0 0.0 529.1772105638412 0.0 0.0 0.0 529.1772105638412" Properties=species:S:1:pos:R:3:forces_component_raw:R:3 ipi_comment="Step:         340  Bead:       0 forces_component_raw{ase}  cell{ase}" pbc="T T T"
H        0.00000000       0.00000000       0.00000000       0.26209475       0.27500468      -0.23001244
H        0.00000000       0.00000000       0.00000000       0.08748572      -0.51106228      -0.04386694
H        0.00000000       0.00000000       0.00000000      -0.10373302      -0.01868947       0.42540005
H        0.00000000       0.00000000       0.00000000       0.23085897      -0.61643479       0.64957532
H        0.00000000       0.00000000       0.00000000       0.28271563       0.88328354      -0.44698640
H        0.00000000       0.00000000       0.00000000      -0.22961027       0.42496842      -1.43148268
H        0.00000000       0.00000000       0.00000000       0.19883934       0.64317020       0.59336843
H        0.00000000       0.00000000       0.00000000       0.33877974       0.24514126       0.12585959
H        0.00000000       0.00000000       0.00000000       0.83530399      -0.66663022       0.51687857
O        0.00000000       0.00000000       0.00000000       0.42776632      -0.16408452      -0.16323035
O        0.00000000       0.00000000       0.00000000      -1.46247033      -0.06720071      -0.13787038
O        0.00000000       0.00000000       0.00000000       0.25235532      -1.42747259       1.01989793
O        0.00000000       0.00000000       0.00000000      -1.12038617       1.00000648      -0.87753069
13
Lattice="529.1772105638412 0.0 0.0 0.0 529.1772105638412 0.0 0.0 0.0 529.1772105638412" Properties=species:S:1:pos:R:3:forces_component_raw:R:3 ipi_comment="Step:         360  Bead:       0 forces_component_raw{ase}  cell{ase}" pbc="T T T"
H        0.00000000       0.00000000       0.00000000      -0.32265490      -0.47547818       0.13613319
H        0.00000000       0.00000000       0.00000000      -0.28812624       0.27957917       0.14048563
H        0.00000000       0.00000000       0.00000000       0.31459365       0.31706195      -0.35991683
H        0.00000000       0.00000000       0.00000000       1.34048428      -0.58894800       0.92354415
H        0.00000000       0.00000000       0.00000000       0.30538688       0.17269799       0.06810925
H        0.00000000       0.00000000       0.00000000       0.01407387       0.03370057      -0.35423758
H        0.00000000       0.00000000       0.00000000       0.17085743       1.37145125       0.96598350