13
Lattice="529.1772105638412 0.0 0.0 0.0 529.1772105638412 0.0 0.0 0.0 529.1772105638412" Properties=species:S:1:pos:R:3:forces_component_raw:R:3 ipi_comment="Step:           0  Bead:       0 forces_component_raw{ase}  cell{ase}" pbc="T T T"
H        0.00000000       0.00000000       0.00000000      -0.70667187       2.27597073       0.17730376
H        0.00000000       0.00000000       0.00000000       0.11703848       0.20820597      -0.07390999
H        0.00000000       0.00000000       0.00000000       2.91085011      -0.21896640       0.09074963
H        0.00000000       0.00000000       0.00000000       0.58564629      -0.28400298       0.28810709
H        0.00000000       0.00000000       0.00000000       0.63927527      -0.09189742       0.19465372
H        0.00000000       0.00000000       0.00000000      -0.04210084       0.41172512      -0.71154163
H        0.00000000       0.00000000       0.00000000       0.15622732      -0.74761222      -0.42513067
H        0.00000000       0.00000000       0.00000000      -0.01440708      -0.01642675      -0.02488317
H        0.00000000       0.00000000       0.00000000      -0.59287729      -0.26633979      -0.11246019
O        0.00000000       0.00000000       0.00000000      -2.33302575      -2.25380106      -0.19726444
O        0.00000000       0.00000000       0.00000000      -0.84615173      -0.00134081      -0.30825700
O        0.00000000       0.00000000       0.00000000      -0.47762101       0.65737994       0.97599393
O        0.00000000       0.00000000       0.00000000       0.60381810       0.32710569       0.12663896
13
Lattice="529.1772105638412 0.0 0.0 0.0 529.1772105638412 0.0 0.0 0.0 529.1772105638412" Properties=species:S:1:pos:R:3:forces_component_raw:R:3 ipi_comment="Step:          20  Bead:       0 forces_component_raw{ase}  cell{ase}" pbc="T T T"
H        0.00000000       0.00000000       0.00000000      -0.31610836      -5.14379793      -0.10815620
H        0.00000000       0.00000000       0.00000000       0.30795466       0.57937821      -0.60454115
H        0.00000000       0.00000000       0.00000000      -6.97171146      -0.51317101       0.87823908
H        0.00000000       0.00000000       0.00000000      -0.31301279      -1.19414421      -0.20075332
H        0.00000000       0.00000000       0.00000000      -1.04746207      -0.02131912      -0.41140866
H        0.00000000       0.00000000       0.00000000      -0.07780004      -0.03696650      -0.69261321
H        0.00000000       0.00000000       0.00000000       0.20088926      -0.08573861      -0.38116543
H        0.00000000       0.00000000       0.00000000       0.35185012      -0.31544022       1.28844759
H        0.00000000       0.00000000       0.00000000      -0.12653763       0.02701209      -0.16312015
O        0.00000000       0.00000000       0.00000000      -0.69736178      -1.19760422       1.01429683
O        0.00000000       0.00000000       0.00000000       8.09493465       1.44340057      -0.16692291
O        0.00000000       0.00000000       0.00000000       0.15793073       5.71595721       1.19703487
O        0.00000000       0.00000000       0.00000000       0.43643470       0.74243373      -1.64933734
13
Lattice="529.1772105638412 0.0 0.0 0.0 529.1772105638412 0.0 0.0 0.0 529.1772105638412" Properties=species:S:1:pos:R:3:forces_component_raw:R:3 ipi_comment="Step:          40  Bead:       0 forces_component_raw{ase}  cell{ase}" pbc="T T T"
H        0.00000000       0.00000000       0.00000000      -0.45042323       1.95858906       0.32781280
H        0.00000000       0.00000000       0.00000000      -0.48143091      -0.80603781       1.02148002
H        0.00000000       0.00000000       0.00000000       1.40339756      -0.22278881      -0.22443536
H        0.00000000       0.00000000       0.00000000       0.89110639      -0.49949765       0.00659311
H        0.00000000       0.00000000       0.00000000      -0.49011382      -1.40955003      -0.50879153
H        0.00000000       0.00000000       0.00000000       0.08806702      -0.40702234       0.14934499
H        0.00000000       0.00000000       0.00000000      -0.00858452      -0.34200568       0.18093538
H        0.00000000       0.00000000       0.00000000       0.79361069      -0.26284332       1.23537972
H        0.00000000       0.00000000       0.00000000       0.25306175       0.31405118      -0.13179180
O        0.00000000       0.00000000       0.00000000       0.14046604      -0.40901936      -0.44985037
O        0.00000000       0.00000000       0.00000000      -1.24207351       1.73553197       0.68696764
O        0.00000000       0.00000000       0.00000000      -0.20196851      -0.27834241      -0.47881517
O        0.00000000       0.00000000       0.00000000      -0.69511494       0.62893519      -1.81482942
13
Lattice="529.1772105638412 0.0 0.0 0.0 529.1772105638412 0.0 0.0 0.0 529.1772105638412" Properties=species:S:1:pos:R:3:forces_component_raw:R:3 ipi_comment="Step:          60  Bead:       0 forces_component_raw{ase}  cell{ase}" pbc="T T T"
H        0.00000000       0.00000000       0.00000000       0.05211011       1.07307230       0.34738831
H        0.00000000       0.00000000       0.00000000      -0.97329936      -0.95714910       1.53405001
H        0.00000000       0.00000000       0.00000000       1.58891624      -0.04520235       0.30984579
H        0.00000000       0.00000000       0.00000000      -0.23453579      -0.30696450      -0.20920873
H        0.00000000       0.00000000       0.00000000      -0.64995114       0.37437034       0.20811694
H        0.00000000       0.00000000       0.00000000      -0.09934917       0.28598029       0.75547171
H        0.00000000       0.00000000       0.00000000      -0.16949286       0.32023092      -0.17271931
H        0.00000000       0.00000000       0.00000000      -0.15085216      -0.80730266       0.47535823
H        0.00000000       0.00000000       0.00000000       0.55280099      -0.19520169       0.72778791
O        0.00000000       0.00000000       0.00000000      -0.87832351       0.25583932      -1.44881465
O        0.00000000       0.00000000       0.00000000       0.91891464      -0.22527068      -0.19464577
O        0.00000000       0.00000000       0.00000000       0.11856166      -1.02842350      -0.87409757
O        0.00000000       0.00000000       0.00000000      -0.07549967       1.25602131      -1.45853286
13
Lattice="529.1772105638412 0.0 0.0 0.0 529.1772105638412 0.0 0.0 0.0 529.1772105638412" Properties=species:S:1:pos:R:3:forces_component_raw:R:3 ipi_comment="Step:          80  Bead:       0 forces_component_raw{ase}  cell{ase}" pbc="T T T"
H        0.00000000       0.00000000       0.00000000       0.68587357      -4.75069577      -0.24596360
H        0.00000000       0.00000000       0.00000000       2.22354050       2.91769473      -3.14144839
H        0.00000000       0.00000000       0.00000000      -5.32923390       0.35786221       0.52142414
H        0.00000000       0.00000000       0.00000000      -0.16634982       0.44744070       0.41008311
H        0.00000000       0.00000000       0.00000000       0.11573023       0.04137408      -0.01759382
H        0.00000000       0.00000000       0.00000000       0.64214477      -1.46565524       0.44494759
H        0.00000000       0.00000000       0.00000000       0.24293146      -0.21437564       0.54553235
H        0.00000000       0.00000000       0.00000000       0.61301148       1.53865702      -0.19078049
H        0.00000000       0.00000000       0.00000000      -0.29763791       1.35751383      -0.86498368
O        0.00000000       0.00000000       0.00000000       1.39940781       1.62603416       0.32565831
O        0.00000000       0.00000000       0.00000000       2.77787902      -0.84508208      -0.55828483
O        0.00000000       0.00000000       0.00000000      -1.13328173       3.15347717      -0.42947665
O        0.00000000       0.00000000       0.00000000      -1.77401550      -4.16424518       3.20088596
13
Lattice="529.1772105638412 0.0 0.0 0.0 529.1772105638412 0.0 0.0 0.0 529.1772105638412" Properties=species:S:1:pos:R:3:forces_component_raw:R:3 ipi_comment="Step:         100  Bead:       0 forces_component_raw{ase}  cell{ase}" pbc="T T T"
H        0.00000000       0.00000000       0.00000000       0.35930131       1.24702593       0.40590004
H        0.00000000       0.00000000       0.00000000      -0.18412056      -0.65496722       1.39522338
H        0.00000000       0.00000000       0.00000000       0.38833629       0.38696079      -0.76311569
H        0.00000000       0.00000000       0.00000000      -1.48301005      -0.10321287       0.63376549
H        0.00000000       0.00000000       0.00000000      -0.39636145       0.33762677       0.70093603
H        0.00000000       0.00000000       0.00000000       0.38585353      -0.13281094       1.05487704
H        0.00000000       0.00000000       0.00000000       0.08851722      -0.21575179      -0.08482365
H        0.00000000       0.00000000       0.00000000      -0.90791686      -0.13795592      -0.72081494
H        0.00000000       0.00000000       0.00000000      -0.16257707      -0.86236240       0.50826089
O        0.00000000       0.00000000       0.00000000      -0.59777397       0.06765241      -0.64184851
O        0.00000000       0.00000000       0.00000000       1.84966961      -0.26723972      -0.77357969
O        0.00000000       0.00000000       0.00000000      -0.40478881      -0.71170723      -1.34029399
O        0.00000000       0.00000000       0.00000000       1.06487082       1.04674218      -0.37448640
13
Lattice="529.1772105638412 0.0 0.0 0.0 529.1772105638412 0.0 0.0 0.0 529.1772105638412" Properties=species:S:1:pos:R:3:forces_component_raw:R:3 ipi_comment="Step:         120  Bead:       0 forces_component_raw{ase}  cell{ase}" pbc="T T T"
H        0.00000000       0.00000000       0.00000000      -0.36068039       1.80902464      -0.52159099
H        0.00000000       0.00000000       0.00000000      -1.32123790      -1.50508477       0.78521247
H        0.00000000       0.00000000       0.00000000       1.07214877       0.31202147       1.27865416
H        0.00000000       0.00000000       0.00000000       0.37771403       0.60093637       1.53555760
H        0.00000000       0.00000000       0.00000000       0.24254839      -0.05654460      -0.63240742
H        0.00000000       0.00000000       0.00000000       0.26910734      -0.59305150       0.43715676
H        0.00000000       0.00000000       0.00000000       0.24196974      -0.35325464      -0.11721765
H        0.00000000       0.00000000       0.00000000      -0.38011334       0.88528579      -0.70213390
H        0.00000000       0.00000000       0.00000000      -0.24288807      -0.05947504      -0.63742098
O        0.00000000       0.00000000       0.00000000      -0.43244875      -0.85441858       0.20772985
O        0.00000000       0.00000000       0.00000000      -1.06046310      -0.83238438      -1.78412085
O        0.00000000       0.00000000       0.00000000      -0.36067917       0.33121834      -0.08631925
O        0.00000000       0.00000000       0.00000000       1.95502245       0.31572690       0.23690022
13
Lattice="529.1772105638412 0.0 0.0 0.0 529.1772105638412 0.0 0.0 0.0 529.1772105638412" Properties=species:S:1:pos:R:3:forces_component_raw:R:3 ipi_comment="Step:         140  Bead:       0 forces_component_raw{ase}  cell{ase}" pbc="T T T"
H        0.00000000       0.00000000       0.00000000       0.41684467       0.22924289       0.57870445
H        0.00000000       0.00000000       0.00000000       1.07206169       0.99054677       0.52654335
H        0.00000000       0.00000000       0.00000000       0.09102751      -0.71995453      -0.81975675
H        0.00000000       0.00000000       0.00000000      -1.27395117      -0.22430492       0.41491772
H        0.00000000       0.00000000       0.00000000      -0.23211205      -0.31600365       0.24128265
H        0.00000000       0.00000000       0.00000000      -0.22765401       0.42120095      -0.28083604
H        0.00000000       0.00000000       0.00000000      -0.05591857      -0.09977592      -0.44520667
H        0.00000000       0.00000000       0.00000000       0.06965324       0.24196688      -1.04445398
H        0.00000000       0.00000000       0.00000000      -0.37930040      -0.22866676       0.56583812
O        0.00000000       0.00000000       0.00000000      -0.22418279      -1.33453940       0.58403043
O        0.00000000       0.00000000       0.00000000       0.87031974       0.98605842       0.06953830
O        0.00000000       0.00000000       0.00000000       0.00509232       0.40909515       0.35795297
O        0.00000000       0.00000000       0.00000000      -0.13188020      -0.35486587      -0.74855456
13
Lattice="529.1772105638412 0.0 0.0 0.0 529.1772105638412 0.0 0.0 0.0 529.1772105638412" Properties=species:S:1:pos:R:3:forces_component_raw:R:3 ipi_comment="Step:         160  Bead:       0 forces_component_raw{ase}  cell{ase}" pbc="T T T"
H        0.00000000       0.00000000       0.00000000       0.53837002      -0.53260661       0.41207451
H        0.00000000       0.00000000       0.00000000      -0.84313325       0.28585062      -1.18595559
H        0.00000000       0.00000000       0.00000000      -0.51994405       0.94092430       0.78439769
H        0.00000000       0.00000000       0.00000000      -0.13052927      -0.06480333      -0.07857521
H        0.00000000       0.00000000       0.00000000      -0.75297622      -0.15495308      -0.13755269
H        0.00000000       0.00000000       0.00000000       0.13562588      -0.79446958      -0.92741117
H        0.00000000       0.00000000       0.00000000       0.27606632      -1.36203548       0.13954390
H        0.00000000       0.00000000       0.00000000      -0.02162860       0.15003204      -0.07727102
H        0.00000000       0.00000000       0.00000000      -0.05459042       0.07251430      -0.87153902
O        0.00000000       0.00000000       0.00000000       0.66771616      -1.51102821       0.12692767
O        0.00000000       0.00000000       0.00000000       0.51967042      -0.19572563      -0.30392332
O        0.00000000       0.00000000       0.00000000      -0.72655919       3.25327545       0.65083393
O        0.00000000       0.00000000       0.00000000       0.91191220      -0.08697480       1.46845032
13
Lattice="529.1772105638412 0.0 0.0 0.0 529.1772105638412 0.0 0.0 0.0 529.1772105638412" Properties=species:S:1:pos:R:3:forces_component_raw:R:3 ipi_comment="Step:         180  Bead:       0 forces_component_raw{ase}  cell{ase}" pbc="T T T"
H        0.00000000       0.00000000       0.00000000      -0.12614822      -0.88418821      -0.46178603
H        0.00000000       0.00000000       0.00000000       1.03314800      -0.15369506       0.62714882
H        0.00000000       0.00000000       0.00000000      -2.42188052       0.34322975      -0.62939655
H        0.00000000       0.00000000       0.00000000       0.30866714       0.39714819      -1.03331154
H        0.00000000       0.00000000       0.00000000       0.07719065      -0.12861554      -0.44488765
H        0.00000000       0.00000000       0.00000000      -0.00915361       0.20418800       0.26661390
H        0.00000000       0.00000000       0.00000000      -0.03087556       0.16273519      -0.90403965
H        0.00000000       0.00000000       0.00000000       0.74995641       0.25351583       1.06913471
H        0.00000000       0.00000000       0.00000000       0.35838920       0.11491333      -0.20397238
O        0.00000000       0.00000000       0.00000000       0.06360447       0.89418122      -1.01309499
O        0.00000000       0.00000000       0.00000000       2.04710352      -0.69850060       1.97287606
O        0.00000000       0.00000000       0.00000000       0.04187657       0.15517528       0.98425921
O        0.00000000       0.00000000       0.00000000      -2.09187804      -0.66008737      -0.22954391
13
Lattice="529.1772105638412 0.0 0.0 0.0 529.1772105638412 0.0 0.0 0.0 529.1772105638412" Properties=species:S:1:pos:R:3:forces_component_raw:R:3 ipi_comment="Step:         200  Bead:       0 forces_component_raw{ase}  cell{ase}" pbc="T T T"
H        0.00000000       0.00000000       0.00000000      -0.15079279      -0.05937205       0.59526912
H        0.00000000       0.00000000       0.00000000      -0.86481907      -0.01683973       0.28565443
H        0.00000000       0.00000000       0.00000000       0.33380235      -0.30235038       0.31679883
H        0.00000000       0.00000000       0.00000000       0.49351098       0.50457396      -1.12893139
H        0.00000000       0.00000000       0.00000000      -0.66424453      -0.11554544      -0.14589896
H        0.00000000       0.00000000       0.00000000       0.06875816      -0.33416628       0.18527703
H        0.00000000       0.00000000       0.00000000       0.25697323      -0.65322557       0.24785870
H        0.00000000       0.00000000       0.00000000       0.39621964       0.37156955       1.12141073
H        0.00000000       0.00000000       0.00000000       1.05739784       0.27174193      -0.47863415
O        0.00000000       0.00000000       0.00000000      -0.59327625       1.65870366      -0.80309419
O        0.00000000       0.00000000       0.00000000       0.46284133      -0.14268179       1.08632415
O        0.00000000       0.00000000       0.00000000       0.14601607      -0.51063111      -0.87285463
O        0.00000000       0.00000000       0.00000000      -0.94238697      -0.67177675      -0.40917967
13
Lattice="529.1772105638412 0.0 0.0 0.0 529.1772105638412 0.0 0.0 0.0 529.1772105638412" Properties=species:S:1:pos:R:3:forces_component_raw:R:3 ipi_comment="Step:         220  Bead:       0 forces_component_raw{ase}  cell{ase}" pbc="T T T"
H        0.00000000       0.00000000       0.00000000      -0.11265688       0.74577461      -1.17033510
H        0.00000000       0.00000000       0.00000000       0.43828242       0.27769830       0.51965896
H        0.00000000       0.00000000       0.00000000       0.70988434       0.32446937       0.41610258
H        0.00000000       0.00000000       0.00000000       0.38028470       0.51948220      -0.52366531
H        0.00000000       0.00000000       0.00000000      -0.11226891       0.03132654       0.00963076
H        0.00000000       0.00000000       0.00000000       0.28632861      -0.07704797       0.93159102
H        0.00000000       0.00000000       0.00000000       0.04413478       0.59849229      -0.32143336
H        0.00000000       0.00000000       0.00000000       0.31959354      -0.04935237      -0.05183662
H        0.00000000       0.00000000       0.00000000       1.09350658      -0.38813432       0.27998161
O        0.00000000       0.00000000       0.00000000      -1.41384644       1.30412669      -0.33228054
O        0.00000000       0.00000000       0.00000000      -0.10595266      -0.77854908       0.40439884
O        0.00000000       0.00000000       0.00000000       0.26870258      -2.61248913       0.24253792
O        0.00000000       0.00000000       0.00000000      -1.79599266       0.10420286      -0.40435078
13
Lattice="529.1772105638412 0.0 0.0 0.0 529.1772105638412 0.0 0.0 0.0 529.1772105638412" Properties=species:S:1:pos:R:3:forces_component_raw:R:3 ipi_comment="Step:         240  Bead:       0 forces_component_raw{ase}  cell{ase}" pbc="T T T"
H        0.00000000       0.00000000       0.00000000      -0.00111797      -0.18724549       0.60920294
H        0.00000000       0.00000000       0.00000000      -0.93824094      -0.83191918       1.17165715
H        0.00000000       0.00000000       0.00000000      -2.34240157       0.39686802       0.00987666
H        0.00000000       0.00000000       0.00000000      -0.03626224      -0.00696735       0.07732590
H        0.00000000       0.00000000       0.00000000       0.41580768      -0.36755490       0.60682424
H        0.00000000       0.00000000       0.00000000      -0.27829328      -0.13233889       0.54651777
H        0.00000000       0.00000000       0.00000000       0.23559645       0.09055204       0.40825232
H        0.00000000       0.00000000       0.00000000       0.15763848      -0.53121108      -0.85440229
H        0.00000000       0.00000000       0.00000000       0.71582648      -0.28860682       0.10402332
O        0.00000000       0.00000000       0.00000000       0.12405083       1.08228463      -0.54347381
O        0.00000000       0.00000000       0.00000000       2.12112597      -0.18607430      -0.76632584
O        0.00000000       0.00000000       0.00000000       0.17083571      -0.18057969      -1.55500367
O        0.00000000       0.00000000       0.00000000      -0.34456561       1.14279300       0.18552531
13
Lattice="529.1772105638412 0.0 0.0 0.0 529.1772105638412 0.0 0.0 0.0 529.1772105638412" Properties=species:S:1:pos:R:3:forces_component_raw:R:3 ipi_comment="Step:         260  Bead:       0 forces_component_raw{ase}  cell{ase}" pbc="T T T"
H        0.00000000       0.00000000       0.00000000       0.04452286      -1.72299295       0.21968351
H        0.00000000       0.00000000       0.00000000       0.11925831       0.67607194      -0.79209985
H        0.00000000       0.00000000       0.00000000      -0.98710518      -0.79290726       0.51011299
H        0.00000000       0.00000000       0.00000000      -0.69441374      -0.22874450      -0.11899658
H        0.00000000       0.00000000       0.00000000      -0.49659931      -0.67639777       0.74349615
H        0.00000000       0.00000000       0.00000000      -0.22671194      -0.30284222      -0.02370118
H        0.00000000       0.00000000       0.00000000       0.25188656       0.71030373       0.77298182
H        0.00000000       0.00000000       0.00000000       0.55177352      -0.55896811      -1.69785264
H        0.00000000       0.00000000       0.00000000       0.11872078      -0.13537328      -0.52093316
O        0.00000000       0.00000000       0.00000000       1.21664165       0.04871122       0.52448573
O        0.00000000       0.00000000       0.00000000       0.55453110       1.75412034      -1.09849634
O        0.00000000       0.00000000       0.00000000       0.09182426       0.83556795      -0.70410455
O        0.00000000       0.00000000       0.00000000      -0.54432885       0.39345093       2.18542410
13
Lattice="529.1772105638412 0.0 0.0 0.0 529.1772105638412 0.0 0.0 0.0 529.1772105638412" Properties=species:S:1:pos:R:3:forces_component_raw:R:3 ipi_comment="Step:         280  Bead:       0 forces_component_raw{ase}  cell{ase}" pbc="T T T"
H        0.00000000       0.00000000       0.00000000       0.09796037       1.13792990       0.29181062
H        0.00000000       0.00000000       0.00000000      -0.01872837       0.20229356       0.70807106
H        0.00000000       0.00000000       0.00000000       0.09148297       1.27824803      -0.37796745
H        0.00000000       0.00000000       0.00000000      -0.92626151      -1.05710788       0.48767224
H        0.00000000       0.00000000       0.00000000       1.21151109      -0.39830146       0.49044497
H        0.00000000       0.00000000       0.00000000       0.04558607       0.03406122      -0.19395740
H        0.00000000       0.00000000       0.00000000       0.46337825       0.32096198       0.32267048
H        0.00000000       0.00000000       0.00000000      -0.56974471      -0.92365466      -2.10125384
H        0.00000000       0.00000000       0.00000000       0.17818182       0.09563818       0.06765245
O        0.00000000       0.00000000       0.00000000       1.34640467      -1.78114185      -1.04038750
O        0.00000000       0.00000000       0.00000000      -1.37138062       0.70827281      -0.53101914
O        0.00000000       0.00000000       0.00000000      -0.76152535      -0.17953750      -0.29098147
O        0.00000000       0.00000000       0.00000000       0.21313534       0.56233766       2.16724499
13
Lattice="529.1772105638412 0.0 0.0 0.0 529.1772105638412 0.0 0.0 0.0 529.1772105638412" Properties=species:S:1:pos:R:3:forces_component_raw:R:3 ipi_comment="Step:         300  Bead:       0 forces_component_raw{ase}  cell{ase}" pbc="T T T"
H        0.00000000       0.00000000       0.00000000      -0.40069871       1.45055949      -0.28357416
H        0.00000000       0.00000000       0.00000000      -0.70857827      -0.78688791       0.70360152
H        0.00000000       0.00000000       0.00000000       0.25197034      -1.11849953       0.46015314
H        0.00000000       0.00000000       0.00000000      -0.47631462      -0.79218523      -0.51536293
H        0.00000000       0.00000000       0.00000000      -0.74936774      -0.35859115       0.13360310
H        0.00000000       0.00000000       0.00000000      -0.08623797      -0.14203214      -0.38286380
H        0.00000000       0.00000000       0.00000000       0.29092163       0.37457473       0.33358616
H        0.00000000       0.00000000       0.00000000      -0.97173120      -0.70257365      -1.78311684
H        0.00000000       0.00000000       0.00000000       0.34030855       0.20815847      -0.76976296
O        0.00000000       0.00000000       0.00000000       0.95774525      -1.56455638      -0.83099926
O        0.00000000       0.00000000       0.00000000       0.56404545       2.31514048       0.14497897
O        0.00000000       0.00000000       0.00000000      -0.16517693       0.18172984       0.13525144
O        0.00000000       0.00000000       0.00000000       1.15311423       0.93516300       2.65450561
13
Lattice="529.1772105638412 0.0 0.0 0.0 529.1772105638412 0.0 0.0 0.0 529.1772105638412" Properties=species:S:1:pos:R:3:forces_component_raw:R:3 ipi_comment="Step:         320  Bead:       0 forces_component_raw{ase}  cell{ase}" pbc="T T T"
H        0.00000000       0.00000000       0.00000000      -0.09668121      -0.63006066       0.73012266
H        0.00000000       0.00000000       0.00000000       0.77750053       1.01824385       0.81751023
H        0.00000000       0.00000000       0.00000000      -0.09571179       1.67093763      -0.55400730
H        0.00000000       0.00000000       0.00000000      -0.48718057      -0.28706803       0.12773580
H        0.00000000       0.00000000       0.00000000       0.69744498       0.49367851      -0.28910700
H        0.00000000       0.00000000       0.00000000      -0.36720743       0.34236214      -0.74916454
H        0.00000000       0.00000000       0.00000000       0.15630594      -0.04094070      -0.06305687
H        0.00000000       0.00000000       0.00000000      -0.79167575      -0.58201914      -1.11238797
H        0.00000000       0.00000000       0.00000000       0.71707934       0.94114475       0.17912814
O        0.00000000       0.00000000       0.00000000      -0.58083845      -1.04170661      -0.49393577
O        0.00000000       0.00000000       0.00000000       0.61481682      -1.61503520       0.50152660
O        0.00000000       0.00000000       0.00000000      -0.07449293       0.65211032       0.29479691
O        0.00000000       0.00000000       0.00000000      -0.46935947      -0.92164687       0.61083911
13
Lattice="529.1772105638412 0.0 0.0 0.0 529.1772105638412 0.0 0.0 0.0 529.1772105638412" Properties=species:S:1:pos:R:3:forces_component_raw:R:3 ipi_comment="Step:         340  Bead:       0 forces_component_raw{ase}  cell{ase}" pbc="T T T"
H        0.00000000       0.00000000       0.00000000       0.43268198      -0.38205576      -0.23585524
H        0.00000000       0.00000000       0.00000000       0.32405657      -0.14100205      -2.05637136
H        0.00000000       0.00000000       0.00000000      -0.30734125      -0.83880656       0.63667925
H        0.00000000       0.00000000       0.00000000      -0.14966343       0.61235621      -0.11749152
H        0.00000000       0.00000000       0.00000000      -1.17282073       0.78827365      -0.53455494
H        0.00000000       0.00000000       0.00000000      -0.16446669      -0.44235097      -0.22014494
H        0.00000000       0.00000000       0.00000000       0.15826659      -0.76323739       0.33424696
H        0.00000000       0.00000000       0.00000000      -0.47143533       0.49661118      -0.25171543
H        0.00000000       0.00000000       0.00000000       0.18183855       1.21731764      -0.93763805
O        0.00000000       0.00000000       0.00000000      -1.63442423       1.29590131       0.31514215
O        0.00000000       0.00000000       0.00000000       2.50013621      -0.95451262       0.35672015
O        0.00000000       0.00000000       0.00000000       0.07909357       0.47902364       0.26655508
O        0.00000000       0.00000000       0.00000000       0.22407819      -1.36751829       2.44442788
13
Lattice="529.1772105638412 0.0 0.0 0.0 529.1772105638412 0.0 0.0 0.0 529.1772105638412" Properties=species:S:1:pos:R:3:forces_component_raw:R:3 ipi_comment="Step:         360  Bead:       0 forces_component_raw{ase}  cell{ase}" pbc="T T T"
H        0.00000000       0.00000000       0.00000000       0.56778167      -1.99617190       0.71308160
H        0.00000000       0.00000000       0.00000000       1.56162709       1.36729303      -1.36605221
H        0.00000000       0.00000000       0.00000000      -2.59696309       1.95140177       0.86467384
H        0.00000000       0.00000000       0.00000000      -0.04908657       0.68363846       0.34088977
H        0.00000000       0.00000000       0.00000000       0.26194294       1.25515459      -0.20210252
H        0.00000000       0.00000000       0.00000000       0.23265510       0.13556690       0.16997082
H        0.00000000       0.00000000       0.00000000      -0.45835335      -0.44801915      -0.33239653