13
Properties=species:S:1:pos:R:3 ipi_comment="Step:           0  Bead:       0 positions{ase}  cell{ase}" pbc="F F F"
H       -0.17162402       0.99555316       0.00473486
H       -0.53842585      -0.53583351       0.71223619
H        0.99859320      -0.10609560       0.09269124
H        2.95167916      -0.72799353       0.41628544
H        2.82399961       0.82332379       0.38936683
H       -0.06136288       2.93153118      -0.83804214
H       -0.21663176       3.15665531       0.67757749
H       -0.96483947      -1.54127569       2.74271215
H       -2.14579432      -1.86554619       1.81526214
O        0.00000000       0.00000000       0.00000000
O        2.48154349       0.00000000       0.00000000
O       -0.00570156       2.46453243       0.00000000
O       -1.28149480      -1.43613888       1.82246890
13
Properties=species:S:1:pos:R:3 ipi_comment="Step:          20  Bead:       0 positions{ase}  cell{ase}" pbc="F F F"
H       -0.15208946       1.26534432       0.07458627
H       -0.48082230      -0.60000254       0.67112084
H        1.24680421      -0.07305725       0.04950921
H        3.05966579      -0.74262524       0.17645758
H        2.89194496       0.78358904       0.40030062
H       -0.04189604       2.84227294      -0.86779986
H       -0.28150349       2.94859872       0.75618168
H       -0.94810060      -1.55930231       2.70902479
H       -2.09903616      -1.80957365       1.71368343
O        0.01103304       0.01798164       0.00966731
O        2.43432479      -0.02418450       0.02354678
O       -0.03229370       2.39178018      -0.02196907
O       -1.25143956      -1.35245376       1.83200004
13
Properties=species:S:1:pos:R:3 ipi_comment="Step:          40  Bead:       0 positions{ase}  cell{ase}" pbc="F F F"
H       -0.10997180       1.05746801       0.00825257
H       -0.47235961      -0.50521606       0.88553864
H        1.09407873      -0.10104920       0.06547724
H        2.90516466      -0.85532207      -0.01060164
H        2.90006173       0.80236823       0.29834739
H       -0.14923648       2.81269481      -0.87615987
H       -0.46236566       2.91408268       0.68156674
H       -0.83048343      -1.61390619       2.61876337
H       -2.02911255      -1.70131795       1.62725404
O        0.03642640       0.00253179       0.02966540
O        2.38669891      -0.03317192       0.05408742
O       -0.06197903       2.34758839      -0.01952615
O       -1.17752128      -1.26836090       1.80325134
13
Properties=species:S:1:pos:R:3 ipi_comment="Step:          60  Bead:       0 positions{ase}  cell{ase}" pbc="F F F"
H       -0.14469482       1.09856429      -0.01673201
H       -0.52291378      -0.51654135       0.88625256
H        1.13101210      -0.09667382       0.20928419
H        2.89532608      -0.83906852      -0.11350525
H        3.04413077       0.68214640       0.14553398
H       -0.27487910       2.79881664      -0.87907439
H       -0.62187706       2.85777851       0.62386645
H       -0.68418669      -1.66140075       2.49325873
H       -1.92791523      -1.60239264       1.54062672
O        0.02366171      -0.07936615       0.07435608
O        2.34087975      -0.03591143       0.06927307
O       -0.10082486       2.34479722      -0.01393014
O       -1.08313008      -1.17535180       1.76354305
13
Properties=species:S:1:pos:R:3 ipi_comment="Step:          80  Bead:       0 positions{ase}  cell{ase}" pbc="F F F"
H       -0.21890444       1.10823155       0.06088648
H       -0.43703318      -0.74723164       0.92066488
H        1.14531606      -0.07531912       0.12222393
H        2.73457533      -0.92083752      -0.27644566
H        2.89755895       0.75138087      -0.00926929
H       -0.32078798       2.72374147      -0.92811087
H       -0.75843742       2.73129360       0.58913685
H       -0.43504797      -1.67126479       2.33744302
H       -1.86815636      -1.59761798       1.54696156
O        0.02882419      -0.08274844       0.09012215
O        2.35215878      -0.06396872       0.08838747
O       -0.14701230       2.34096440      -0.03190919
O       -1.04362361      -1.11369005       1.77978297
13
Properties=species:S:1:pos:R:3 ipi_comment="Step:         100  Bead:       0 positions{ase}  cell{ase}" pbc="F F F"
H       -0.17797076       1.05730107      -0.01654100
H       -0.55673253      -0.51515375       0.84122716
H        1.16701002      -0.05339241      -0.00846195
H        2.88608229      -0.81278743      -0.42913440
H        2.84364560       0.69235352      -0.26197874
H       -0.39378296       2.61871891      -0.94845576
H       -0.86214060       2.74194918       0.50836950
H       -0.42707560      -1.78369519       2.29474424
H       -1.82971857      -1.67639079       1.63607391
O        0.04280391      -0.00540544       0.04001988
O        2.40892340      -0.09751020       0.12576991
O       -0.21127549       2.30207556      -0.02685196
O       -1.04444915      -1.11649378       1.83455033
13
Properties=species:S:1:pos:R:3 ipi_comment="Step:         120  Bead:       0 positions{ase}  cell{ase}" pbc="F F F"
H       -0.14979156       1.21053507       0.04892149
H       -0.46902164      -0.52319033       0.98672981
H        1.19211687      -0.18402707       0.13816601
H        3.00206265      -0.87858755      -0.33038187
H        2.71405838       0.73365848      -0.25665485
H       -0.43052972       2.67302935      -0.92606657
H       -0.88594071       2.70073202       0.61562857
H       -0.37544261      -1.75106169       2.30174522
H       -1.91245793      -1.60256566       1.65804745
O        0.07548711       0.03260492      -0.03309883
O        2.48270255      -0.12684260       0.10636253
O       -0.29630056       2.30460720      -0.02478955
O       -1.06813799      -1.13460984       1.88593314
13
Properties=species:S:1:pos:R:3 ipi_comment="Step:         140  Bead:       0 positions{ase}  cell{ase}" pbc="F F F"
H       -0.12224082       1.10588936      -0.02310326
H       -0.58444134      -0.71350762       0.95979232
H        1.32219790      -0.16042671      -0.10906190
H        3.11601603      -0.83651887      -0.27530935
H        2.86582943       0.65872090      -0.31875161
H       -0.63665232       2.81080575      -0.85505445
H       -0.96905408       2.72169959       0.67191850
H       -0.58543805      -1.88522193       2.35515036
H       -1.91050130      -1.52570209       1.69280140
O        0.11814139      -0.02557479      -0.02832318
O        2.51674292      -0.12551808       0.07641330
O       -0.39885622       2.35054974      -0.02287452
O       -1.03034792      -1.11092099       1.91787069
13
Properties=species:S:1:pos:R:3 ipi_comment="Step:         160  Bead:       0 positions{ase}  cell{ase}" pbc="F F F"
H       -0.21857640       0.87077647      -0.08026940
H       -0.31060068      -0.70018326       1.02401145
H        1.28310858      -0.11757592      -0.05752805
H        3.03923612      -0.93765002      -0.15601791
H        3.01548426       0.65173273      -0.26725092
H       -0.88938323       2.85290134      -0.80842720
H       -1.06684261       2.67069470       0.72293882
H       -0.52012974      -1.76796832       2.43278616
H       -1.93501565      -1.32443394       1.80155838
O        0.15367665      -0.09302226      -0.00147959
O        2.55871450      -0.11488621       0.02199984
O       -0.50211869       2.39568765      -0.03371815
O       -0.99839051      -1.10066438       1.92393676
13
Properties=species:S:1:pos:R:3 ipi_comment="Step:         180  Bead:       0 positions{ase}  cell{ase}" pbc="F F F"
H       -0.16589589       0.88984423      -0.04549469
H       -0.35593555      -0.49016287       0.86763994
H        1.30085533      -0.07615814       0.09938629
H        3.04159262      -0.91730881      -0.10039613
H        3.23352729       0.56197422      -0.23100002
H       -1.02463131       2.83993922      -0.76266633
H       -1.11059510       2.61499063       0.77619718
H       -0.60781208      -1.67613887       2.52920075
H       -1.88434393      -1.32324528       1.86172222
O        0.17634238      -0.13165063       0.05655573
O        2.58733249      -0.10245639      -0.02111720
O       -0.59856337       2.36978246      -0.04322087
O       -0.95508695      -1.06276428       1.89440404
13
Properties=species:S:1:pos:R:3 ipi_comment="Step:         200  Bead:       0 positions{ase}  cell{ase}" pbc="F F F"
H       -0.13692936       0.91601390      -0.11164595
H       -0.31458199      -0.72360491       1.04542267
H        1.27465920      -0.08016239       0.06224390
H        3.02106391      -0.95129531      -0.03676613
H        3.25079475       0.62212690      -0.22228387
H       -1.06639824       2.83544449      -0.74357266
H       -1.12075933       2.64395746       0.79692062
H       -0.52073679      -1.57562012       2.56422136
H       -1.87327236      -1.17916991       1.73316630
O        0.20736799      -0.07204372       0.07084302
O        2.62135915      -0.10495578      -0.06900419
O       -0.68001092       2.30926262      -0.01680364
O       -0.94417795      -1.06464150       1.89571979
13
Properties=species:S:1:pos:R:3 ipi_comment="Step:         220  Bead:       0 positions{ase}  cell{ase}" pbc="F F F"
H       -0.29327558       0.98113391       0.09049085
H       -0.24841564      -0.52542688       0.92399069
H        1.38317945       0.05457184      -0.06291555
H        3.17224583      -0.90304301       0.05240873
H        3.26372443       0.64983502      -0.28252376
H       -1.01243371       2.74736861      -0.77888310
H       -1.08283114       2.67479895       0.79451584
H       -0.69310264      -1.70113894       2.58438598
H       -1.86735185      -1.25297861       1.85736506
O        0.23062266       0.02374554       0.07689162
O        2.63501816      -0.11029266      -0.11176869
O       -0.73223747       2.22209860       0.00943634
O       -0.93566316      -1.08162886       1.90045426
13
Properties=species:S:1:pos:R:3 ipi_comment="Step:         240  Bead:       0 positions{ase}  cell{ase}" pbc="F F F"
H       -0.13007263       1.22891478       0.08121914
H       -0.17286773      -0.56641905       0.88728585
H        1.36472430       0.00353772       0.13775264
H        3.17840146      -0.87140539       0.15555798
H        3.23832371       0.67156663      -0.43286111
H       -0.90753151       2.54398497      -0.85619047
H       -1.06136813       2.69932475       0.76509845
H       -0.56504122      -1.78501727       2.51493795
H       -1.88706448      -1.24278656       1.76097232
O        0.24604624       0.11019605       0.07669065
O        2.64423033      -0.08030828      -0.14627827
O       -0.78533122       2.14475969       0.03687657
O       -0.93466006      -1.11798918       1.91812411
13
Properties=species:S:1:pos:R:3 ipi_comment="Step:         260  Bead:       0 positions{ase}  cell{ase}" pbc="F F F"
H       -0.09781845       1.12090566       0.26059000
H       -0.33970423      -0.48733318       0.97315610
H        1.38270422       0.05605795       0.02665239
H        3.29366256      -0.73419664       0.23841613
H        3.20527996       0.68873230      -0.53555704
H       -0.86856766       2.54734126      -0.84490071
H       -1.04222308       2.81585606       0.68967856
H       -0.47579016      -1.87769735       2.39413033
H       -1.90129051      -1.33139829       1.82283284
O        0.30195239       0.12996948       0.13195037
O        2.64467690      -0.05767514      -0.18197782
O       -0.86361789       2.11965606       0.04720913
O       -0.91894767      -1.14263631       1.88752412
13
Properties=species:S:1:pos:R:3 ipi_comment="Step:         280  Bead:       0 positions{ase}  cell{ase}" pbc="F F F"
H       -0.17475419       1.15681965       0.14082687
H       -0.18682552      -0.54414542       0.95298967
H        1.49491118       0.05520495       0.11026866
H        3.27663449      -0.67907881       0.32783597
H        3.12939515       0.74564288      -0.64329198
H       -0.97443206       2.52409693      -0.83487495
H       -1.00285847       2.87767564       0.70696695
H       -0.40463621      -2.00758531       2.12835736
H       -1.86214482      -1.35988475       1.82963143
O        0.33125408       0.12191079       0.25062114
O        2.67639917      -0.04264829      -0.24495215
O       -0.96379210       2.14280533       0.05854084
O       -0.88855730      -1.17089375       1.83979336
13
Properties=species:S:1:pos:R:3 ipi_comment="Step:         300  Bead:       0 positions{ase}  cell{ase}" pbc="F F F"
H       -0.27596280       1.15338035       0.20047339
H       -0.27528256      -0.52188695       1.03021538
H        1.47626863       0.05713987       0.05998908
H        3.35416268      -0.57106063       0.26857053
H        3.21233940       0.74054179      -0.59981483
H       -1.09495791       2.57140426      -0.78825462
H       -0.80465885       2.84846584       0.70714127
H       -0.52990130      -2.19611506       1.87059921
H       -1.82984192      -1.22626581       1.74567844
O        0.37206324       0.15282678       0.34536291
O        2.67802552      -0.03935611      -0.29999519
O       -1.06257271       2.14970960       0.05788334
O       -0.82823512      -1.21747858       1.81487209
13
Properties=species:S:1:pos:R:3 ipi_comment="Step:         320  Bead:       0 positions{ase}  cell{ase}" pbc="F F F"
H       -0.26010369       1.09877083       0.09259089
H       -0.07019558      -0.61988687       1.13977828
H        1.41152639       0.14334917       0.10078620
H        3.25837368      -0.60628991       0.23993561
H        3.14098245       0.75570448      -0.60757487
H       -1.17225454       2.59085712      -0.77635752
H       -0.71190298       2.80889478       0.66840735
H       -0.71173122      -2.27778347       1.60717520
H       -1.73324178      -0.99992980       1.67497207
O        0.36585672       0.21295055       0.40778089
O        2.68083389      -0.03985122      -0.34127193
O       -1.09823937       2.15737697       0.04513384
O       -0.78408511      -1.28717396       1.82883947
13
Properties=species:S:1:pos:R:3 ipi_comment="Step:         340  Bead:       0 positions{ase}  cell{ase}" pbc="F F F"
H       -0.34880479       1.13697706       0.16787869
H       -0.06676397      -0.50321565       1.11204212
H        1.47511306       0.14346594       0.00878908
H        3.27337398      -0.52619140       0.21227835
H        3.14472910       0.72000213      -0.65016951
H       -1.26405426       2.55857988      -0.81710899
H       -0.80931320       2.85429813       0.61739964
H       -0.91308000      -2.26089075       1.46705798
H       -1.65215872      -0.91715269       1.73798819
O        0.36706066       0.28746131       0.44916523
O        2.66304541      -0.05519150      -0.35984790
O       -1.08825642       2.15666969       0.02230887
O       -0.75780035      -1.36530613       1.84672131
13
Properties=species:S:1:pos:R:3 ipi_comment="Step:         360  Bead:       0 positions{ase}  cell{ase}" pbc="F F F"
H       -0.21207467       1.32325693       0.16082199
H       -0.11382065      -0.55776912       1.05103208
H        1.42022486       0.13181396       0.09154343
H        3.12064155      -0.49169949       0.28234094
H        3.10411511       0.68483977      -0.78551830
H       -1.31455057       2.45107576      -0.86652124
H       -0.96292871       2.90857141       0.57573132
H       -0.85017772      -2.28265382       1.47821038
H       -1.62640892      -1.09701532       2.10835584
O        0.40937059       0.32754483       0.48673558
O        2.61796464      -0.04893876      -0.38280529
O       -1.08318395       2.14975753       0.02488202
O       -0.74283759      -1.39619619       1.81442428
13
Properties=species:S:1:pos:R:3 ipi_comment="Step:         380  Bead:       0 positions{ase}  cell{ase}" pbc="F F F"
H       -0.24331743       1.22320496       0.25358668
H       -0.19122644      -0.46153901       1.06624874
H        1.52397508       0.26819323       0.07519612
H        3.16043311      -0.48558119       0.20728722
H        3.14032973       0.57105217      -0.82101961
H       -1.27043396       2.34534425      -0.91347870
H       -1.14538890       2.95104063       0.54103687
H       -0.73938223      -2.30469490       1.51547644
H       -1.40849321      -1.24561914       2.39396645
O        0.43347993       0.34835936       0.53778412
O        2.54498515      -0.05461784      -0.38842780
O       -1.07019879       2.14640083       0.03069329
O       -0.72342659      -1.39480590       1.74918097
13
Properties=species:S:1:pos:R:3 ipi_comment="Step:         400  Bead:       0 positions{ase}  cell{ase}" pbc="F F F"
H       -0.29593513       1.21794408       0.38108834
H       -0.01337505      -0.50190226       1.11254658
H        1.49660684       0.19786051       0.09533265
H        3.05184730      -0.69054159       0.10395118
H        2.96050398       0.55747422      -1.00854063
H       -1.20451383       2.32863282      -0.92360401
H       -1.20582921       2.96898108       0.53398326
H       -0.64724823      -2.30175474       1.48028329
H       -1.11047109      -1.28991710       2.53722374
O        0.39957495       0.39201405       0.60733884
O        2.52945368      -0.08205608      -0.41840634
O       -1.06210112       2.14601206       0.04196528
O       -0.69500927      -1.38703080       1.69871309
13
Properties=species:S:1:pos:R:3 ipi_comment="Step:         420  Bead:       0 positions{ase}  cell{ase}" pbc="F F F"
H       -0.29677138       1.38986385       0.32204124
H       -0.11377161      -0.44028024       1.17270113
H        1.26156001       0.23225964       0.12184937
H        3.19976112      -0.77946824      -0.24205429
H        3.02253789       0.43361234      -1.07292784
H       -1.09727287       2.37645381      -0.90517470
H       -1.17471678       2.98589146       0.61571330
H       -0.46441636      -2.29692469       1.43491343
H       -0.76799471      -1.35297737       2.60955894
O        0.39715944       0.42681544       0.66112223
O        2.50500622      -0.12140376      -0.44847716
O       -1.08565774       2.15848459       0.06105211
O       -0.67844357      -1.39884146       1.67202026
13
Properties=species:S:1:pos:R:3 ipi_comment="Step:         440  Bead:       0 positions{ase}  cell{ase}" pbc="F F F"
H       -0.26074623       1.22533917       0.33792895
H       -0.15636728      -0.49916734       1.04824622
H        1.31941364       0.15116579       0.17003471
H        3.08593061      -0.94370279      -0.29392275
H        2.82295273       0.50720468      -1.12732210
H       -1.00071341       2.57691146      -0.83961430
H       -1.05931673       2.98408185       0.67634835
H       -0.31478504      -2.27133219       1.34967569
H       -0.46700072      -1.42811760       2.58586330
O        0.42315223       0.46549019       0.69742047
O        2.50787267      -0.14310655      -0.46293048
O       -1.13317703       2.18318407       0.05812521
O       -0.68501358      -1.42501094       1.66251393
13
Properties=species:S:1:pos:R:3 ipi_comment="Step:         460  Bead:       0 positions{ase}  cell{ase}" pbc="F F F"
H       -0.24852302       1.27002708       0.22239522
H       -0.15404977      -0.50632307       1.23642454
H        1.49430935       0.20675999       0.12886638
H        3.00724209      -1.01319211      -0.38991730
H        2.89511389       0.40981471      -1.13819471
H       -1.06851593       2.77326275      -0.76821045
H       -1.03967851       2.83692307       0.85472035
H       -0.33891001      -2.25677389       1.15826313
H       -0.34069676      -1.46633294       2.55270560
O        0.45822061       0.48283468       0.72651019
O        2.45920871      -0.15073864      -0.45070238
O       -1.14360554       2.21920897       0.04350770
O       -0.67591662      -1.46771035       1.63897548
13
Properties=species:S:1:pos:R:3 ipi_comment="Step:         480  Bead:       0 positions{ase}  cell{ase}" pbc="F F F"
H       -0.21093865       1.34181248       0.32539126
H       -0.14306489      -0.51447970       1.11402249
H        1.34201104       0.26823054       0.17960420
H        2.84281378      -1.06174968      -0.29210120
H        2.96033906       0.39989058      -1.06776725
H       -1.18254715       2.87404885      -0.69303442
H       -1.20256310       2.78395946       0.87462059
H       -0.43500856      -2.25959824       1.07149375
H       -0.39778612      -1.77887283       2.55104999
O        0.46923503       0.51059549       0.74126079
O        2.42575604      -0.14947732      -0.46809644
O       -1.11147001       2.21637343       0.03260839
O       -0.64573016      -1.48123793       1.63952516
13
Properties=species:S:1:pos:R:3 ipi_comment="Step:         500  Bead:       0 positions{ase}  cell{ase}" pbc="F F F"
H       -0.22658831       1.24192322       0.30353416
H        0.03342436      -0.29637205       1.20906570
H        1.42242885       0.26953426       0.13353099
H        2.80510932      -1.04050658      -0.29681301
H        3.04272234       0.28022057      -1.01831617
H       -1.13458715       2.71965179      -0.78071095
H       -1.48600651       2.72217092       0.82185121
H       -0.61077104      -2.27654580       1.01265559
H       -0.42270693      -1.83618744       2.56532480
O        0.43806633       0.55077986       0.74752075
O        2.37157609      -0.15155240      -0.48073231
O       -1.07014350       2.21815448       0.06435778
O       -0.59224291      -1.50415800       1.62128101
13
Properties=species:S:1:pos:R:3 ipi_comment="Step:         520  Bead:       0 positions{ase}  cell{ase}" pbc="F F F"
H       -0.40229070       1.35758154       0.38922840
H       -0.00305173      -0.35495454       1.18165651
H        1.36949713       0.29865059       0.14704608
H        2.64580573      -1.02955451      -0.18416161
H        2.97037604       0.42689323      -0.95570527
H       -1.16027420       2.57917457      -0.84472112
H       -1.67255625       2.66150495       0.69526337
H       -0.79708895      -2.21967465       1.01694974
H       -0.63499307      -1.87272099       2.56270138
O        0.45164640       0.55306737       0.75151334
O        2.33723605      -0.16746077      -0.51048374
O       -1.04922215       2.22011486       0.08789207
O       -0.52262106      -1.49646748       1.61984283
13
Properties=species:S:1:pos:R:3 ipi_comment="Step:         540  Bead:       0 positions{ase}  cell{ase}" pbc="F F F"
H       -0.21054898       1.29743367       0.49157220
H        0.01399003      -0.39003533       1.09168152
H        1.28871219       0.30292425       0.07850808
H        2.77384732      -0.96248602      -0.28785022
H        3.06541786       0.34666463      -0.87797762
H       -1.11758104       2.43439090      -0.86013608
H       -1.84178105       2.56436131       0.57048367
H       -0.96290257      -2.05688960       0.98918757
H       -0.75347404      -1.76564592       2.55565314
O        0.45622575       0.53113312       0.77265320
O        2.29457386      -0.17018512      -0.54526990
O       -1.06983664       2.25199664       0.11516373
O       -0.46015961      -1.49889088       1.62241799
13
Properties=species:S:1:pos:R:3 ipi_comment="Step:         560  Bead:       0 positions{ase}  cell{ase}" pbc="F F F"
H       -0.30882826       1.37315732       0.49259409
H       -0.08727317      -0.44310365       1.36124623
H        1.43532741       0.20170318       0.14023396
H        2.62764348      -1.00309008      -0.30422308
H        2.96227126       0.54899078      -0.71964799
H       -1.19625556       2.38017739      -0.83534169
H       -1.95883447       2.37451481       0.44542435
H       -1.11938485      -1.89603467       1.01208612
H       -0.80175072      -1.49117121       2.51603995
O        0.46178733       0.50543731       0.79688952
O        2.28547438      -0.17075602      -0.58033560
O       -1.07210479       2.29501645       0.11631903
O       -0.41007662      -1.53293388       1.60958143
13
Properties=species:S:1:pos:R:3 ipi_comment="Step:         580  Bead:       0 positions{ase}  cell{ase}" pbc="F F F"
H       -0.40655156       1.46118841       0.38496144
H        0.08038615      -0.54785632       1.12493791
H        1.38936851       0.16931087       0.07744878
H        2.65213633      -1.00018371      -0.40547407
H        3.07181724       0.45691770      -0.53917715
H       -1.15154482       2.36218116      -0.83558625
H       -1.90369769       2.13245487       0.52329008
H       -1.14875587      -1.70378059       1.00302839
H       -0.81304220      -1.44662802       2.48292670
O        0.43330076       0.50877243       0.83606896
O        2.29136128      -0.15381483      -0.60866809
O       -1.06706839       2.31905185       0.11003611
O       -0.40619787      -1.56706797       1.62341808
13
Properties=species:S:1:pos:R:3 ipi_comment="Step:         600  Bead:       0 positions{ase}  cell{ase}" pbc="F F F"
H       -0.25727581       1.49223269       0.40903727
H        0.03537384      -0.51309109       1.38696069
H        1.22499229       0.31904382       0.20091922
H        2.51157834      -1.05496842      -0.51725670
H        3.10581353       0.38583410      -0.43362339
H       -1.22228142       2.38651621      -0.80480003
H       -1.92372305       2.03266937       0.47417022
H       -1.19398941      -1.72839405       1.03691547
H       -0.66403360      -1.49697492       2.51731930
O        0.42030281       0.52683471       0.84350929
O        2.31839400      -0.13926934      -0.64663204
O       -1.06646692       2.30434056       0.12396847
O       -0.41115283      -1.58113780       1.61145053
13
Properties=species:S:1:pos:R:3 ipi_comment="Step:         620  Bead:       0 positions{ase}  cell{ase}" pbc="F F F"
H       -0.17450935       1.34838799       0.52444824
H       -0.17919163      -0.50555933       1.22035568
H        1.38043472       0.21778864       0.15141949
H        2.43260732      -1.05673133      -0.77443883
H        3.20439653       0.19282826      -0.42166007
H       -1.15837925       2.44674538      -0.81074335
H       -1.98183025       2.12695522       0.48088380
H       -1.24220963      -1.88947364       1.14259821
H       -0.61601786      -1.76669154       2.52412055
O        0.44285190       0.54429915       0.84712605
O        2.31498462      -0.09423900      -0.63931778
O       -1.08150810       2.28071430       0.13069770
O       -0.41832885      -1.57536060       1.60844866
13
Properties=species:S:1:pos:R:3 ipi_comment="Step:         640  Bead:       0 positions{ase}  cell{ase}" pbc="F F F"
H       -0.37696752       1.40994710       0.37318850
H        0.02889210      -0.30536724       1.17526924
H        1.49326351       0.23416978       0.07072853
H        2.17617227      -0.97101648      -1.03583385
H        3.18631274       0.17422961      -0.42760223
H       -1.10068632       2.59186785      -0.77286416
H       -1.99237131       2.35028062       0.54147609
H       -1.18297748      -2.14778475       1.21929641
H       -0.31813257      -1.86459898       2.54112671
O        0.50527871       0.52200860       0.84118683
O        2.29052989      -0.05682142      -0.62731997
O       -1.08149679       2.25837306       0.13132928
O       -0.47195012      -1.59066890       1.62394838
13
Properties=species:S:1:pos:R:3 ipi_comment="Step:         660  Bead:       0 positions{ase}  cell{ase}" pbc="F F F"
H       -0.31869731       1.33890541       0.42908199
H        0.08588229      -0.52884751       1.20540421
H        1.34860676       0.32324683       0.21946148
H        2.14534830      -0.80488571      -1.27510584
H        3.22257788      -0.01831213      -0.45135042
H       -1.04180409       2.70843765      -0.72811710
H       -1.88724184       2.40151713       0.67593550
H       -1.12110567      -2.29570521       1.28690553
H       -0.15357549      -1.95402160       2.49688005
O        0.52386975       0.53102949       0.83598900
O        2.28248375       0.00091149      -0.64734267
O       -1.07409286       2.23723402       0.12085891
O       -0.51298897      -1.61729473       1.64865705
13
Properties=species:S:1:pos:R:3 ipi_comment="Step:         680  Bead:       0 positions{ase}  cell{ase}" pbc="F F F"
H       -0.09790902       1.31041435       0.52963890
H       -0.12310210      -0.31808076       0.98126354
H        1.41137466       0.30161570       0.07749557
H        2.03191513      -0.58322158      -1.43862687
H        3.21406302      -0.10221782      -0.27127178
H       -1.07700876       2.80386397      -0.66362406
H       -1.83913587       2.50098392       0.61702793
H       -1.02183044      -2.24168470       1.15710618
H       -0.09179568      -2.17086198       2.41887839
O        0.46987637       0.51052393       0.86184742
O        2.31624550       0.04995219      -0.67502904
O       -1.05887837       2.19530686       0.10818220
O       -0.51594688      -1.62472402       1.69158958
13
Properties=species:S:1:pos:R:3 ipi_comment="Step:         700  Bead:       0 positions{ase}  cell{ase}" pbc="F F F"
H       -0.32201374       1.43608864       0.50837534
H        0.02050479      -0.41707721       1.32530220
H        1.42283608       0.16247806       0.01733205
H        2.22616167      -0.48099948      -1.51388790
H        3.17249123      -0.30205055      -0.25907520
H       -0.86668053       2.74760187      -0.67757161
H       -1.80749666       2.46047742       0.67886668
H       -1.00010532      -2.19595675       1.11505814
H        0.04991291      -2.20979326       2.29661303
O        0.44292554       0.47680409       0.86039310
O        2.33194198       0.10925032      -0.68548932
O       -1.07995093       2.18428307       0.10014552
O       -0.51443138      -1.62037466       1.70630366
13
Properties=species:S:1:pos:R:3 ipi_comment="Step:         720  Bead:       0 positions{ase}  cell{ase}" pbc="F F F"
H       -0.43800470       1.19669656       0.46141438
H        0.07113568      -0.49669710       1.30088584
H        1.32356974       0.29593646       0.02909407
H        2.20851430      -0.23955490      -1.60520142
H        3.03658895      -0.36399418      -0.14457754
H       -0.71818195       2.85151083      -0.50031212