1
Properties=species:S:1:pos:R:3:REF_forces:R:3 REF_energy=-2045.41865185226 REF_free_energy=-2045.41865185226 magmom=2.0 pbc="F F F" config_type=IsolatedAtom
O       -0.24525292       0.92704947       0.70060630       0.00000000       0.00000000       0.00000000
1
Properties=species:S:1:pos:R:3:REF_forces:R:3 REF_energy=-13.7487804074635 REF_free_energy=-13.7487804074635 magmom=1.0 pbc="F F F" config_type=IsolatedAtom
H       -0.04364253       0.07101824       0.05101683       0.00000000       0.00000000       0.00000000
7
Properties=species:S:1:pos:R:3:REF_forces:R:3 REF_energy=-4175.02281636429 free_energy=-4175.02281636429 pbc="F F F"
O       -0.24525292       0.92704947       0.70060630      -1.24617376      -1.33566316      -1.11247458
H        0.50572486       1.32109162       1.06381283       2.00650571       1.66705117       1.48318559
H       -1.11256270       1.27455707       0.89327293      -0.70724455       0.55316310       0.36071843
O        0.24664311      -0.93881000      -0.68037431       0.00843401      -0.26158960       0.08598420
H       -0.04364253       0.07101824       0.05101683      -0.11801426      -0.50234372      -0.52703518
H        1.06001929      -1.02699918      -1.19234993       0.44364574       0.08046412      -0.17566447
H       -0.43160411      -1.45300416      -1.13687519      -0.38715289      -0.20108192      -0.11471399
7
Properties=species:S:1:pos:R:3:REF_forces:R:3 REF_energy=-4174.83719602967 free_energy=-4174.83719602967 pbc="F F F"
O       -1.15866052       0.56514362       0.07791679      -1.33431801       1.25477083       0.61982097
H       -1.96412475       0.45213502      -0.44321236      -0.02127849      -0.38838591      -0.93900469
H       -1.41226066       0.66879796       1.00208562       0.22567904       0.06255462       0.84322666
O        1.18147874      -0.54385338      -0.06708241      -1.58440167       1.00028659       0.55153565
H       -0.24115397       0.22517819      -0.10239953       1.56847471      -1.42009815      -0.41081709
H        1.85753273      -0.22013550      -0.63765680       1.22868671       0.91288515      -1.00877251
H        1.39783537      -1.46389475       0.00921945      -0.08284229      -1.42201313       0.34401101
7
Properties=species:S:1:pos:R:3:REF_forces:R:3 REF_energy=-4174.95693116983 free_energy=-4174.95693116983 pbc="F F F"
O       -0.32799708       1.16384571       0.09628625       0.53112717      -0.84683093      -0.69991769
H       -0.98842353       1.57401213      -0.52000428       0.51840530       0.16338256       1.24008779
H       -0.16254307       1.47939402       1.01149792      -0.69500375       0.58547643      -0.72460523
O        0.37060025      -1.14265997      -0.11231081       0.25699812      -1.15981203      -0.56351632
H        0.13742675      -0.01557004      -0.15929323      -0.80041928       0.24714875       0.26570961
H        0.15403110      -1.80722969      -0.82571904       0.18700650       0.91107509       0.46070465
H        0.18331028      -1.56686693       0.74786100       0.00188594       0.09956012       0.02153719
7
Properties=species:S:1:pos:R:3:REF_forces:R:3 REF_energy=-4175.05943721364 free_energy=-4175.05943721364 pbc="F F F"
O       -0.22585255       0.93801739       0.74704065       0.73772925       0.13600359      -0.03658692
H        0.43562793       1.68153444       0.85986832      -0.92943827      -0.95132835      -0.04678746
H       -1.07109967       1.10907689       1.19954293       0.15086869       0.14855969       0.09862337
O        0.22374323      -0.95859912      -0.72736319       0.52760338      -0.00492538       0.70851567
H       -0.01456709      -0.14911685       0.12251086       0.01523785       0.66280277      -0.65543446
H        1.09427054      -0.96022271      -1.16088074       0.19809514       0.10977786       0.11702886
H       -0.41075240      -1.35459796      -1.33336245      -0.70009603      -0.10089018      -0.18535907
7
Properties=species:S:1:pos:R:3:REF_forces:R:3 REF_energy=-4175.01871230268 free_energy=-4175.01871230268 pbc="F F F"
O        0.47634292       0.95340137      -0.44174328      -1.56905216       1.44249077      -0.04085981
H       -0.10022970       1.76493840      -0.51577246       1.15245665      -0.62936697      -0.11898899
H        1.39424068       0.99332480      -0.68898789       1.04847928       0.59199535      -0.30680381
O       -0.46384281      -0.95958714       0.44708972       0.12716317      -0.51464195       0.19880547
H        0.06659250       0.09754116       0.12812285      -0.24053138      -0.59757400      -0.19552283
H       -0.43565772      -1.72661947      -0.15702447      -0.25763967       0.06448583       0.29690066
H       -1.12334764      -1.03100407       1.14880314      -0.26087590      -0.35738903       0.16646931
7
Properties=species:S:1:pos:R:3:REF_forces:R:3 REF_energy=-4174.85780301515 free_energy=-4174.85780301515 pbc="F F F"
O       -0.30104598       1.15629935       0.20299922       0.90455822       1.60060952      -1.27362482
H       -1.16701959       1.36201463      -0.11504768      -1.74242279       0.54931188      -0.67579745
H       -0.29090313       1.21344509       1.13310164       0.01981630       0.51839908       2.76519876
O        0.33744742      -1.12837629      -0.22858235      -0.50210765       2.22970886       0.61761719
H       -0.03768826       0.21920676      -0.03734449       0.70775716      -2.32763367      -0.68738097
H        0.24807463      -1.57360009      -1.04553146       0.00871456      -1.31671227      -1.58333453
H        0.66977195      -1.66426201       0.47087801       0.60368419      -1.25368341       0.83732182
7
Properties=species:S:1:pos:R:3:REF_forces:R:3 REF_energy=-4175.05733018247 free_energy=-4175.05733018247 pbc="F F F"
O       -0.22785738       0.91826692       0.72496553       0.64022441       1.52099471       0.78239241
H        0.45642441       1.61332448       0.96254442      -0.71344770      -1.04412401      -0.41035778
H       -1.05979691       1.26070711       1.10290929      -0.06890068      -0.26574709      -0.10512485
O        0.22874176      -0.94815063      -0.70271250       0.30715068      -0.88049442       0.48087168
H       -0.03419025      -0.16703678      -0.06055859      -0.06495280       1.12838116       0.58131567
H        1.09194497      -0.90977181      -1.12287528       0.57728065       0.00448036      -0.50023401
H       -0.46841907      -1.32290791      -1.23522047      -0.67735455      -0.46349072      -0.82886312
7
Properties=species:S:1:pos:R:3:REF_forces:R:3 REF_energy=-4175.02098725327 free_energy=-4175.02098725327 pbc="F F F"
O       -0.24284821       0.97460237       0.67167023      -0.00675796      -0.79581523      -2.30819595
H        0.14087648       1.10702341       1.52535098       0.20881790       0.41689522       1.31810092
H       -1.09270205       1.38625537       0.49558031      -0.40336539       0.62821307       0.54268784
O        0.24599819      -0.94808736      -0.69563407      -0.06512061       0.34984376      -0.84123542
H        0.05172395       0.02029646      -0.20511075      -0.03217164       0.00085713       1.20422042
H        1.14433814      -1.20997673      -0.89745498       0.96201145      -0.08458246      -0.22536057
H       -0.29423312      -1.72444522      -0.53801077      -0.66341374      -0.51541147       0.30978276
7
Properties=species:S:1:pos:R:3:REF_forces:R:3 REF_energy=-4174.72136021198 free_energy=-4174.72136021198 pbc="F F F"
O       -0.54514616       0.71389335       0.79151950       2.12533897      -0.15980570      -1.91486082
H       -1.15295673       0.55138157       1.49436822      -1.18658835       0.56220176       1.14604790
H       -0.33552640       1.56130062       0.33060085      -0.99617949      -0.06146589       1.14689960
O        0.53860918      -0.72352511      -0.77920070       0.22939783       1.03904118       0.04852768
H       -0.02547543      -0.10779289       0.22412958      -0.10053174      -0.04397363      -0.48363377
H        0.51624477      -1.69979519      -0.85228972       0.57393157       0.46741912      -0.59611245
H        1.10146874      -0.15221869      -1.39233329      -0.64536879      -1.80341685       0.65313187
7
Properties=species:S:1:pos:R:3:REF_forces:R:3 REF_energy=-4174.99894063769 free_energy=-4174.99894063769 pbc="F F F"
O        1.15844407       0.05734954      -0.44749800       0.18052618      -1.36299648      -0.04867735
H        1.78587236      -0.73641898      -0.42489436      -0.96268016       1.34872931      -0.02577824
H        1.57398784       0.92152179      -0.58991255       0.29358603       0.10559038       0.01046866
O       -1.17248067      -0.06244066       0.43838280       3.28062578      -0.82901417      -0.35180394
H        0.08276755       0.00397964      -0.11099274      -0.07292967      -0.21496895       0.54998716
H       -1.37975938      -0.54882452       1.23880165      -0.58955099      -0.05879362       0.40091535
H       -1.84007896       0.44054840       0.03167471      -2.12957717       1.01145353      -0.53511164
7
Properties=species:S:1:pos:R:3:REF_forces:R:3 REF_energy=-4175.09870355416 free_energy=-4175.09870355416 pbc="F F F"
O       -0.17019699       0.78209792       0.86125811       0.65658318       0.32435694      -2.00091757
H       -0.26735502       1.71263118       0.64229182      -0.21463452       0.69645096       0.47409848
H       -0.36835603       0.51398294       1.73848987      -0.44918901      -0.16743982       1.76620722
O        0.17852787      -0.76242260      -0.89714211      -0.40544740       0.13532764      -0.31281292
H        0.06864041       0.05930158      -0.07989257      -0.16459878      -0.54410023       0.32262434
H        1.03166571      -1.22802615      -0.85879274       0.01112012      -0.39756251      -0.09712925
H       -0.59682300      -1.37017681      -0.87254467       0.56616642      -0.04703297      -0.15207030
7
Properties=species:S:1:pos:R:3:REF_forces:R:3 REF_energy=-4175.07754082118 free_energy=-4175.07754082118 pbc="F F F"
O       -0.00423024       1.17736180      -0.09493975      -0.56360320      -0.89113836      -2.09669877
H       -0.46835048       1.70084295      -0.77157031      -0.00464872       0.03680864       0.00238115
H        0.17771466       1.71257773       0.64569669       0.46362024       1.32471875       1.89078047
O        0.05380639      -1.18303051       0.07323715       0.27453696      -0.31899329      -1.03570566
H       -0.08034050      -0.07875169      -0.07460428       0.03833306       0.35705544      -0.10058942
H       -0.41026554      -1.86143964      -0.45397712      -0.10262407       0.11649146      -0.06476742
H       -0.00563209      -1.38325552       0.99891916      -0.10561428      -0.62494265       1.40459966
7
Properties=species:S:1:pos:R:3:REF_forces:R:3 REF_energy=-4175.07625923961 free_energy=-4175.07625923961 pbc="F F F"
O       -0.30118704       1.14711645       0.21445755       0.62856936       0.10860351       0.50177955
H       -1.18054911       1.46423751      -0.06797449       0.10184797       0.02291383       0.28582350
H       -0.09367957       1.40505306       1.14925430      -0.47013070       0.07469493      -0.81790338
O        0.31332802      -1.11863288      -0.23690694       0.40350479      -1.70961843      -0.77297519
H        0.13079138      -0.04488113      -0.11541194      -0.63238911       0.71629856       0.36175489
H        0.36619872      -1.57692250      -1.11882358       0.04367376       0.48548511       0.79415410
H        0.58453657      -1.69957894       0.50927312      -0.07507607       0.30162249      -0.35263347
7
Properties=species:S:1:pos:R:3:REF_forces:R:3 REF_energy=-4175.00731664567 free_energy=-4175.00731664567 pbc="F F F"
O       -0.31885378       1.10610916       0.32917540       0.94310584      -0.44186525       1.23882013
H       -0.86624057       1.57862805      -0.26712532      -1.85678363       0.74340221      -1.52126801
H        0.45242513       1.67466516       0.38567168       1.00971161       0.54694784       0.54350556
O        0.27745341      -1.12457244      -0.28627523      -1.16415680       1.90385050       0.57975521
H        0.01239875       0.07682428       0.01451665      -0.32348397      -0.69637675       0.12360258
H        0.70441896      -1.17594090      -1.11989692       1.03788059      -0.93487724      -1.48220129
H        0.35410551      -1.86112692       0.30592135       0.35372636      -1.12108131       0.51778583
7
Properties=species:S:1:pos:R:3:REF_forces:R:3 REF_energy=-4175.16646904994 free_energy=-4175.16646904994 pbc="F F F"
O        1.14971877      -0.12017852       0.16219324       0.63350187       0.59847099       0.27626602
H        1.40036510      -0.90543845       0.64803536       0.23610323      -0.88210054       0.61030885
H        1.69980164      -0.06922263      -0.62246099       0.56200645       0.13161526      -0.71884051
O       -1.15105453       0.11479996      -0.13206516      -0.89185604       0.05581152       0.65925197
H        0.03993044       0.01814126      -0.00952514      -0.32804900       0.02493886       0.02512401
H       -1.47131106       0.37287049      -0.99517411      -0.32569574       0.12365809      -1.06896840
H       -1.64758476       0.66901796       0.50093133       0.11398922      -0.05239418       0.21685805
7
Properties=species:S:1:pos:R:3:REF_forces:R:3 REF_energy=-4174.99447590972 free_energy=-4174.99447590972 pbc="F F F"
O        1.02870836       0.44204486      -0.51537543       0.65641468      -0.78193446       1.53724153
H        1.87114100       0.07981993      -0.10043796      -0.99282897       0.64491116      -0.92012888
H        1.05946451       0.91409290      -1.34664678       0.47917387       0.33442813      -0.81190845
O       -1.02732916      -0.42503871       0.54235390       0.46238903       2.36724601      -1.53590691
H        0.08831830       0.06566273      -0.14224669      -0.14077432      -0.51506183       0.53087014
H       -1.18069723      -1.21786336       1.01219154      -0.28961679      -1.87855112       0.99398760
H       -1.86011744      -0.11163412       0.14893696      -0.17475750      -0.17103788       0.20584497
7
Properties=species:S:1:pos:R:3:REF_forces:R:3 REF_energy=-4175.08707110711 free_energy=-4175.08707110711 pbc="F F F"
O       -0.13080486       1.20592380      -0.01153496      -0.65173712       0.15937416      -1.42799247
H       -0.43412584       1.76095770      -0.78329535       0.23073679      -0.83345861       0.70478898
H        0.12549585       1.79573403       0.69486128       0.29078476       0.41780745       0.86284092
O        0.11413201      -1.21805479       0.02000623      -1.13397045       1.47651424      -1.31246034
H       -0.08796765      -0.01852153       0.05188262       0.42081251      -0.18004209      -0.20799940
H        0.16815587      -1.66420785      -0.84933045       0.16502692      -0.11045845       0.43366686
H        0.49307372      -1.68141915       0.75142563       0.67834657      -0.92973670       0.94715545
7
Properties=species:S:1:pos:R:3:REF_forces:R:3 REF_energy=-4175.04731462601 free_energy=-4175.04731462601 pbc="F F F"
O       -0.35235303       1.13620141       0.22826212       0.14075033       1.24545550       1.36556679
H       -0.92214571       1.62913051      -0.37927584      -0.22850560      -0.02897105      -0.35190110
H       -0.22998687       1.75321998       1.02351693      -0.01065895      -1.32796581      -1.11758505
O        0.34714716      -1.14966735      -0.22428673       0.04251216       0.03106095       1.22902384
H       -0.01968784      -0.11296009       0.02240450       0.29016878       0.09061785       0.09384288
H        0.31503703      -1.42271583      -1.15529663       0.39736231      -0.41751677       0.00495946
H        0.93941102      -1.63294277       0.42555362      -0.63162904       0.40731933      -1.22390683
7
Properties=species:S:1:pos:R:3:REF_forces:R:3 REF_energy=-4175.08744528915 free_energy=-4175.08744528915 pbc="F F F"
O       -0.21529848       0.90464133       0.78419445      -0.24641248       0.73833698       0.57750415
H        0.21472874       1.80205427       0.81715951      -0.37909227      -0.86996008      -0.30636130
H       -0.93028627       0.82758893       1.46139197       0.38759953      -0.00947353      -0.46110295
O        0.22654995      -0.91684649      -0.77423205      -0.86143491       0.54832911       0.51639715
H       -0.12537170       0.14449325      -0.04679472       0.68925832      -0.19142896       0.11327673
H        1.08646881      -1.17538866      -1.10344412       0.95334336       0.02916901      -0.12120449
H       -0.42412310      -1.40502704      -1.28643610      -0.54326156      -0.24497253      -0.31850929
7
Properties=species:S:1:pos:R:3:REF_forces:R:3 REF_energy=-4175.12381258191 free_energy=-4175.12381258191 pbc="F F F"
O       -0.25147535       0.95735701       0.66833106      -0.01710125       1.16772898       1.32515772
H        0.30489758       1.24077141       1.44583941      -0.37689807      -0.45260657      -0.79525352
H       -1.14041999       1.37685179       0.79774846       0.52094640      -0.53658107      -0.37898489
O        0.25881828      -0.94799815      -0.69554482      -0.07386305       1.19332160       0.62037248
H        0.01725178      -0.02229483       0.02873774      -0.00620888      -0.12980077      -0.22710608
H        1.14146103      -1.14878688      -1.03616957       0.04655382      -0.40103306      -0.19928818
H       -0.43973774      -1.59508539      -0.80421870      -0.09342896      -0.84102910      -0.34489753
7
Properties=species:S:1:pos:R:3:REF_forces:R:3 REF_energy=-4174.86327346707 free_energy=-4174.86327346707 pbc="F F F"
O       -0.40379765       1.11950376       0.23100374      -2.52755493      -1.92258519      -1.29403459
H       -0.45553935       1.39464879      -0.69534534       0.05510770       0.81479574      -0.31143047
H        0.15064681       1.62233986       0.76301854       2.08691419       2.31036624       1.74098464
O        0.34248357      -1.13118427      -0.19738900      -1.87194599       1.54275031       0.03433583
H       -0.09140144       0.09491937       0.19116205       0.30906045      -0.79179262      -0.31167464
H        0.40380414      -1.34857418      -1.12217643       0.29800171      -0.54490557      -0.89840928
H        0.96566822      -1.57794043       0.32980732       1.65041686      -1.40862891       1.04022851
7
Properties=species:S:1:pos:R:3:REF_forces:R:3 REF_energy=-4175.07485794504 free_energy=-4175.07485794504 pbc="F F F"
O       -0.40256436       1.12598229       0.17771748      -1.86682170      -0.36097254      -1.22249741
H       -0.61888733       1.68695406      -0.58664790      -0.16956497      -0.14760806      -0.44080611
H        0.11821810       1.64095867       0.74813975       1.66999555       1.34156169       1.93616306
O        0.38741179      -1.13032244      -0.15511952      -0.27631414       0.86086290      -1.04452112
H       -0.07481352       0.11029069       0.02569950       0.39715360      -0.75764084      -0.07572608
H        0.18973948      -1.55522775      -1.00375592      -0.01508169      -0.13732996      -0.18129247
H        0.62624529      -1.81408872       0.45788903       0.26063336      -0.79887319       1.02868012
7
Properties=species:S:1:pos:R:3:REF_forces:R:3 REF_energy=-4174.93276456839 free_energy=-4174.93276456839 pbc="F F F"
O        0.67646946       0.95322858      -0.53580524      -1.41976297       0.16990911       1.33650846
H        0.64324916       1.93368585      -0.46344221      -0.07294774      -0.58163507       0.13065965
H        1.36384011       0.73564239      -1.13702510       1.41312845      -0.30420432      -1.21110100
O       -0.67227679      -0.94799020       0.55227164       0.47637344       1.07251615       0.41624515
H        0.00982815      -0.20767037       0.16713091      -0.69114068       0.66746651      -0.05576278
H       -0.54156474      -1.83458293       0.20391649      -0.36664860      -0.74991623      -0.10618646
H       -1.54189899      -0.71021867       0.96806473       0.66099811      -0.27413615      -0.51036302
7
Properties=species:S:1:pos:R:3:REF_forces:R:3 REF_energy=-4175.04504446929 free_energy=-4175.04504446929 pbc="F F F"
O        1.12439655      -0.38499720      -0.22347194      -0.60379015      -0.87423325      -0.69722650
H        1.34453850      -1.07644316      -0.87923768      -0.58647673       0.02574260      -0.00723529
H        1.95018012      -0.06231641       0.09720901       1.29408215       0.96371000       0.87532289
O       -1.13505491       0.39983812       0.21967316       1.53784176       0.26919193       0.44969058
H        0.05891820       0.03199106       0.04262521      -0.69628502      -0.17820872      -0.40888039
H       -1.29740026       0.77996310       1.11156971      -0.67269372      -0.30174213      -0.60450572
H       -1.88706698       0.09124999      -0.31187205      -0.27267829       0.09553958       0.39283443
7
Properties=species:S:1:pos:R:3:REF_forces:R:3 REF_energy=-4175.24018828221 free_energy=-4175.24018828221 pbc="F F F"
O       -0.15511931       0.76080447       0.90022558       0.02245392      -0.11262540      -0.08517543
H       -0.32111931       1.70080447       0.75722558      -0.06904320       0.39295342      -0.08315786
H       -0.14011931       0.56480447       1.84522558       0.01070129      -0.10347952       0.36137025
O        0.15188069      -0.73919553      -0.92877442       0.00346753       0.15006991      -0.33400386
H        0.01188069      -0.06319553      -0.03377442      -0.02460400       0.12164386       0.22353087
H        1.02988069      -1.13319553      -1.04177442       0.38086511      -0.15198478      -0.03120516
H       -0.52911931      -1.41219553      -1.07377442      -0.32384064      -0.29657748      -0.05135882
7
Properties=species:S:1:pos:R:3:REF_forces:R:3 REF_energy=-4175.08906180277 free_energy=-4175.08906180277 pbc="F F F"
O       -0.24579861       0.96904872       0.66913479       0.52690469       0.26409709       0.37811194
H        0.20249956       1.16841429       1.53305414      -0.39671973      -0.24752501      -0.84428495
H       -1.12696525       1.36981959       0.64748001      -0.18027258       0.22024691       0.06685321
O        0.25117621      -0.95152948      -0.69494553       0.01649548       0.43454828      -0.36715669
H        0.06108477       0.05984664      -0.18428249      -0.19981817      -0.48023222       0.82774957
H        1.16468479      -1.18363026      -0.93959478      -0.11059061      -0.30253081      -0.06989155
H       -0.38665732      -1.69251613      -0.64698823       0.34400093       0.11139577       0.00861849
7
Properties=species:S:1:pos:R:3:REF_forces:R:3 REF_energy=-4175.11470008837 free_energy=-4175.11470008837 pbc="F F F"
O       -0.57643038      -1.07528702       0.08004352       0.02737665       1.02690596       1.22096640
H       -0.60403265      -1.70141137      -0.62865786       0.10382727      -0.78841381      -1.29792632
H       -1.18119202      -1.38559403       0.77833134       0.07406317       0.25332294       0.14485734
O        0.58890809       1.06714705      -0.06282852      -0.90328925       0.93429557       0.79622170
H       -0.03420802       0.04353814       0.03074975       0.04595327      -0.12123929      -0.24312574
H        1.36291090       1.19437420      -0.61170526       0.76683139      -0.34764663      -0.59783668
H        0.25847525       1.97829086       0.15804529      -0.11476250      -0.95722473      -0.02315670
7
Properties=species:S:1:pos:R:3:REF_forces:R:3 REF_energy=-4175.01241271636 free_energy=-4175.01241271636 pbc="F F F"
O        0.28885343       1.13297561      -0.30563766       1.06653540      -0.18966622       0.99730014
H       -0.16442669       1.61907366      -1.00185502      -0.12299888       0.35736196      -0.34112672
H        1.17326518       1.52474937      -0.08701778      -0.85720537      -0.13650702      -0.40864583
O       -0.32157306      -1.13140812       0.31025717      -0.21530737       2.27965252       2.10653199
H       -0.02254176      -0.08113245       0.10739147      -0.03265656       0.14389445      -1.05112151
H       -0.29284974      -1.79494540      -0.36336965       0.30564020      -1.41990753      -0.58532972
H       -0.17412021      -1.29262447       1.27152998      -0.14400742      -1.03482817      -0.71760835
7
Properties=species:S:1:pos:R:3:REF_forces:R:3 REF_energy=-4174.96521504672 free_energy=-4174.96521504672 pbc="F F F"
O        1.07640810      -0.41518996      -0.20063791      -0.56893817      -0.99738916      -1.77222033
H        1.16953154      -1.16499247      -0.86247470       0.46798202       0.98815182       1.18152060
H        1.78693468      -0.22369527       0.40956590       0.92503073      -0.28458017       0.29176407
O       -1.06660859       0.43468552       0.19646603       0.07381657      -1.99451100      -2.41094078
H        0.02332121       0.04200620      -0.03300782       0.20229966       0.00190558       0.37029290
H       -1.33928210       1.04305533       0.83173482      -0.98426798       1.97973446       2.05194136
H       -1.79604354      -0.00580769      -0.27960194      -0.11592283       0.30668847       0.28764218
7
Properties=species:S:1:pos:R:3:REF_forces:R:3 REF_energy=-4175.10739603577 free_energy=-4175.10739603577 pbc="F F F"
O       -0.24235315       1.17157175       0.07026767       0.71858836      -1.35077578       0.83679613
H       -0.69731457       1.49525021      -0.69319685      -0.70354214       1.10784767      -0.81901039
H       -0.00127167       1.79215338       0.77390795      -0.15094358       0.37221648      -0.15100190
O        0.20642056      -1.18378447      -0.06103541      -1.01460250       0.60706845       0.57989250
H        0.01511480      -0.01984353       0.05189156       0.11487896       0.11141874       0.27989821
H        0.57453508      -1.41142111      -0.90250236       0.64653311      -0.50956344      -1.42664901
H        0.67925928      -1.66229851       0.62336492       0.38908779      -0.33821212       0.70007447
7
Properties=species:S:1:pos:R:3:REF_forces:R:3 REF_energy=-4175.07772826474 free_energy=-4175.07772826474 pbc="F F F"
O       -0.25109731       0.94268890       0.68536485      -0.61202615      -0.52736974      -0.59342373
H        0.45340089       1.27175177       1.24333354       0.32615927       0.49825263       0.71407797
H       -1.13640542       1.33018346       0.83203813       0.30255575      -0.01353246       0.19075144
O        0.25614021      -0.93295650      -0.68605865      -0.02614414      -0.56810474      -0.16473205
H       -0.05672428      -0.06762951       0.12262026       0.24809476       0.55797118      -0.32327427
H        1.07093077      -1.14497382      -1.17200649       0.34678828       0.39118060       0.21211941
H       -0.41124283      -1.54380488      -1.01497330      -0.58542776      -0.33839748      -0.03551876
7
Properties=species:S:1:pos:R:3:REF_forces:R:3 REF_energy=-4175.12357193707 free_energy=-4175.12357193707 pbc="F F F"
O       -0.29746271       1.15946941       0.20557417      -0.24236021      -0.25710985      -0.27379333
H       -1.21904513       1.36155198      -0.10999058       0.64690205      -0.00247325       0.57504912
H       -0.21893178       1.22973883       1.18241975      -0.39563698       0.38277754      -0.22573096
O        0.32840939      -1.11679822      -0.23096702       0.17033093      -1.11572842      -0.80398499
H        0.02841841       0.03877724      -0.07616342      -0.19852143       0.28462143       0.09695465
H        0.28539583      -1.61485561      -1.09642437       0.11114944       0.55855215       1.00522746
H        0.63297635      -1.69249069       0.50319463      -0.09186379       0.14936040      -0.37372194
7
Properties=species:S:1:pos:R:3:REF_forces:R:3 REF_energy=-4175.1606724478 free_energy=-4175.1606724478 pbc="F F F"
O       -0.23962022       0.97505632       0.65846664      -0.07228612       0.02653109      -0.24594155
H        0.06872522       1.08996281       1.59144460      -0.62079023       0.13958058      -0.71964460
H       -1.05226984       1.46340322       0.39351081       0.48044856       0.05967684       0.74579721
O        0.24258432      -0.94978716      -0.69652518      -0.01368310      -0.08331508      -0.59644061
H        0.02012168      -0.02840783      -0.09355533       0.28633308       0.23546306       0.69319288
H        1.16654147      -1.19706538      -0.88022215       0.19163025       0.10377761       0.00483522
H       -0.25016497      -1.72896552      -0.40711200      -0.25165243      -0.48171409       0.11820145
7
Properties=species:S:1:pos:R:3:REF_forces:R:3 REF_energy=-4174.82216502951 free_energy=-4174.82216502951 pbc="F F F"
O       -1.15748682       0.00309124      -0.14340048       0.16906066       2.58615473      -2.96022602
H       -1.39453987      -0.57154350       0.51548250      -2.17148199      -2.54285382       2.78646967
H       -1.82674386       0.35832693      -0.77618536       0.32054643      -0.47755560       0.44761227
O        1.17658364       0.01991357       0.10413627      -0.13113522       0.05880642      -0.49092370
H       -0.07183434      -0.01832254      -0.18054027       1.07082995       0.62933346      -0.16873564
H        1.54685392      -0.84512652       0.32931156       0.50717205      -0.09441008       0.25264514
H        1.44315897       0.71153284       0.73513411       0.23500812      -0.15947509       0.13315827
7
Properties=species:S:1:pos:R:3:REF_forces:R:3 REF_energy=-4174.87714264776 free_energy=-4174.87714264776 pbc="F F F"
O        1.15576861      -0.24854768       0.28463242      -0.71497465      -1.81930391      -1.09944330
H        1.47470491      -1.18529372       0.36332180      -0.40710323       0.77313964      -0.26183161
H        1.70724244       0.24099154       0.85607346       1.38628358       1.36045468       1.31284482