7
Properties=species:S:1:pos:R:3:REF_forces:R:3 REF_energy=-224.31490142159345 pbc="F F F"
O       -0.24525292       0.92704947       0.70060630      -1.28643099      -0.78737469      -0.79861761
H        0.50572486       1.32109162       1.06381283       1.60734120       1.16197725       1.06382332
H       -1.11256270       1.27455707       0.89327293      -0.35005315       0.27727036       0.21027255
O        0.24664311      -0.93881000      -0.68037431      -0.02647002      -0.20472873      -0.53864152
H       -0.04364253       0.07101824       0.05101683       0.00795859      -0.45209459      -0.23961192
H        1.06001929      -1.02699918      -1.19234993       0.15628863       0.04564531       0.13720127
H       -0.43160411      -1.45300416      -1.13687519      -0.10863426      -0.04069542       0.16557340
7
Properties=species:S:1:pos:R:3:REF_forces:R:3 REF_energy=-224.13382714556454 pbc="F F F"
O       -1.15866052       0.56514362       0.07791679      -1.46655067       0.65721053       0.65940625
H       -1.96412475       0.45213502      -0.44321236       0.38578943      -0.17945273      -0.46889880
H       -1.41226066       0.66879796       1.00208562       0.38033355       0.02763679       0.14042852
O        1.18147874      -0.54385338      -0.06708241      -1.24983596       0.44752368       0.05104103
H       -0.24115397       0.22517819      -0.10239953       1.18056838      -0.83054866      -0.19154051
H        1.85753273      -0.22013550      -0.63765680       0.81872004       0.71169323      -0.57125648
H        1.39783537      -1.46389475       0.00921945      -0.04902477      -0.83406336       0.38082000
7
Properties=species:S:1:pos:R:3:REF_forces:R:3 REF_energy=-224.19809345346906 pbc="F F F"
O       -0.32799708       1.16384571       0.09628625      -0.03913014      -0.51805213      -0.43099405
H       -0.98842353       1.57401213      -0.52000428       0.73024683      -0.06771412       1.05489079
H       -0.16254307       1.47939402       1.01149792      -0.42998361       0.24833927      -0.84109275
O        0.37060025      -1.14265997      -0.11231081      -0.53891715      -1.23492408      -0.47916779
H        0.13742675      -0.01557004      -0.15929323      -0.36214865       0.07730125       0.32607555
H        0.15403110      -1.80722969      -0.82571904       0.39974795       1.12997935       0.72334702
H        0.18331028      -1.56686693       0.74786100       0.24018425       0.36507045      -0.35305877
7
Properties=species:S:1:pos:R:3:REF_forces:R:3 REF_energy=-224.2908941622494 pbc="F F F"
O       -0.22585255       0.93801739       0.74704065       0.78039569       0.38748327       0.08453891
H        0.43562793       1.68153444       0.85986832      -1.02913708      -1.14666890      -0.13467131
H       -1.07109967       1.10907689       1.19954293       0.29531487      -0.00630692      -0.09521104
O        0.22374323      -0.95859912      -0.72736319       0.46929167       0.32332087       0.29399538
H       -0.01456709      -0.14911685       0.12251086       0.05437164       0.41127832      -0.60182639
H        1.09427054      -0.96022271      -1.16088074      -0.20051572       0.06048572       0.35264174
H       -0.41075240      -1.35459796      -1.33336245      -0.36972106      -0.02959237       0.10053220
7
Properties=species:S:1:pos:R:3:REF_forces:R:3 REF_energy=-224.27484271956445 pbc="F F F"
O        0.47634292       0.95340137      -0.44174328      -1.21901820       2.14283518      -0.11719089
H       -0.10022970       1.76493840      -0.51577246       1.13008323      -1.04709521      -0.03478034
H        1.39424068       0.99332480      -0.68898789       0.68847617       0.27920074      -0.24441577
O       -0.46384281      -0.95958714       0.44708972      -0.32351833      -0.98066973       0.17046261
H        0.06659250       0.09754116       0.12812285      -0.17788590      -0.58670830      -0.22501114
H       -0.43565772      -1.72661947      -0.15702447      -0.08086274       0.36664962       0.43684074
H       -1.12334764      -1.03100407       1.14880314      -0.01727421      -0.17421179       0.01409479
7
Properties=species:S:1:pos:R:3:REF_forces:R:3 REF_energy=-224.16601322157584 pbc="F F F"
O       -0.30104598       1.15629935       0.20299922      -0.16498410       1.16543950      -0.50493899
H       -1.16701959       1.36201463      -0.11504768      -0.76896559       0.36326245      -0.48689036
H       -0.29090313       1.21344509       1.13310164       0.18840480       0.37146633       1.64538633
O        0.33744742      -1.12837629      -0.22858235      -0.43967410       1.42028469       0.60028424
H       -0.03768826       0.21920676      -0.03734449       0.70349553      -1.50567926      -0.58633755
H        0.24807463      -1.57360009      -1.04553146      -0.00456268      -0.95096371      -1.32152141
H        0.66977195      -1.66426201       0.47087801       0.48628666      -0.86381051       0.65401773
7
Properties=species:S:1:pos:R:3:REF_forces:R:3 REF_energy=-224.3042279061118 pbc="F F F"
O       -0.22785738       0.91826692       0.72496553       0.62079136       1.89624426       0.80353510
H        0.45642441       1.61332448       0.96254442      -0.91050174      -1.26696363      -0.44433088
H       -1.05979691       1.26070711       1.10290929       0.15916621      -0.37633703      -0.18314381
O        0.22874176      -0.94815063      -0.70271250       0.33900100      -0.65534442      -0.37952262
H       -0.03419025      -0.16703678      -0.06055859      -0.00347356       0.69836566       0.57569472
H        1.09194497      -0.90977181      -1.12287528       0.11209291      -0.03520303      -0.06350471
H       -0.46841907      -1.32290791      -1.23522047      -0.31707618      -0.26076182      -0.30872781
7
Properties=species:S:1:pos:R:3:REF_forces:R:3 REF_energy=-224.29803061966362 pbc="F F F"
O       -0.24284821       0.97460237       0.67167023      -0.23328752      -0.63966377      -1.59969422
H        0.14087648       1.10702341       1.52535098       0.25136958       0.35160712       0.96555112
H       -1.09270205       1.38625537       0.49558031      -0.09487166       0.34358168       0.30913610
O        0.24599819      -0.94808736      -0.69563407       0.07664562      -0.01206824      -0.34094322
H        0.05172395       0.02029646      -0.20511075      -0.06233640      -0.05941820       0.69395622
H        1.14433814      -1.20997673      -0.89745498       0.43169339       0.09807782      -0.13664643
H       -0.29423312      -1.72444522      -0.53801077      -0.36921353      -0.08211693       0.10864043
7
Properties=species:S:1:pos:R:3:REF_forces:R:3 REF_energy=-224.1051364588292 pbc="F F F"
O       -0.54514616       0.71389335       0.79151950       1.72733819       0.26799741      -1.73797742
H       -1.15295673       0.55138157       1.49436822      -0.90542073       0.28627847       0.90874928
H       -0.33552640       1.56130062       0.33060085      -0.73512884      -0.61536119       1.00396855
O        0.53860918      -0.72352511      -0.77920070       0.65938671       0.83677587      -0.32311261
H       -0.02547543      -0.10779289       0.22412958      -0.14945567       0.24089284      -0.41735846
H        0.51624477      -1.69979519      -0.85228972       0.30839202       0.54058733      -0.33947357
H        1.10146874      -0.15221869      -1.39233329      -0.90511220      -1.55717126       0.90520373
7
Properties=species:S:1:pos:R:3:REF_forces:R:3 REF_energy=-224.2598918412817 pbc="F F F"
O        1.15844407       0.05734954      -0.44749800       0.41326630      -1.34391932       0.15861548
H        1.78587236      -0.73641898      -0.42489436      -1.21021835       1.50828122      -0.04116748
H        1.57398784       0.92152179      -0.58991255       0.00061141      -0.13069433       0.01439561
O       -1.17248067      -0.06244066       0.43838280       2.65387128      -0.77351336      -0.01636610
H        0.08276755       0.00397964      -0.11099274       0.14764458      -0.12872023       0.28141806
H       -1.37975938      -0.54882452       1.23880165      -0.36571477      -0.00057130       0.14182155
H       -1.84007896       0.44054840       0.03167471      -1.63946097       0.86913732      -0.53871660
7
Properties=species:S:1:pos:R:3:REF_forces:R:3 REF_energy=-224.3002777656385 pbc="F F F"
O       -0.17019699       0.78209792       0.86125811       0.42046539       0.42417857      -1.45180899
H       -0.26735502       1.71263118       0.64229182      -0.08185056       0.25840566       0.26611640
H       -0.36835603       0.51398294       1.73848987      -0.32187386      -0.19024622       1.36906163
O        0.17852787      -0.76242260      -0.89714211      -0.38514922      -0.69864231       0.26987689
H        0.06864041       0.05930158      -0.07989257      -0.14507399      -0.29771680       0.00149073
H        1.03166571      -1.22802615      -0.85879274      -0.28432392       0.05002647      -0.20642309
H       -0.59682300      -1.37017681      -0.87254467       0.79780668       0.45399463      -0.24831356
7
Properties=species:S:1:pos:R:3:REF_forces:R:3 REF_energy=-224.27816979827062 pbc="F F F"
O       -0.00423024       1.17736180      -0.09493975      -1.04324575      -0.43898710      -1.78269302
H       -0.46835048       1.70084295      -0.77157031       0.28815281      -0.22379346       0.19829789
H        0.17771466       1.71257773       0.64569669       0.49000345       0.98102917       1.46245798
O        0.05380639      -1.18303051       0.07323715      -0.65403881      -0.64153502      -0.66298265
H       -0.08034050      -0.07875169      -0.07460428       0.46866740       0.22102027      -0.07641525
H       -0.41026554      -1.86143964      -0.45397712       0.31780637       0.40877201       0.10307862
H       -0.00563209      -1.38325552       0.99891916       0.13265402      -0.30650534       0.75825592
7
Properties=species:S:1:pos:R:3:REF_forces:R:3 REF_energy=-224.2738441515907 pbc="F F F"
O       -0.30118704       1.14711645       0.21445755      -0.01147895       0.10030337       1.03526402
H       -1.18054911       1.46423751      -0.06797449       0.46479378      -0.02208321       0.13581853
H       -0.09367957       1.40505306       1.14925430      -0.30463924      -0.07024717      -1.17963970
O        0.31332802      -1.11863288      -0.23690694       0.60235244      -1.87685916      -0.71472662
H        0.13079138      -0.04488113      -0.11541194      -0.45742860       0.61606516       0.23968957
H        0.36619872      -1.57692250      -1.11882358      -0.07508496       0.69339418       1.05246933
H        0.58453657      -1.69957894       0.50927312      -0.21851447       0.55942684      -0.56887513
7
Properties=species:S:1:pos:R:3:REF_forces:R:3 REF_energy=-224.19043338373064 pbc="F F F"
O       -0.31885378       1.10610916       0.32917540       1.34979018       0.11635425       0.25487090
H       -0.86624057       1.57862805      -0.26712532      -1.38351740       0.36061370      -0.83899782
H        0.45242513       1.67466516       0.38567168       0.28329548       0.01966894       0.54451392
O        0.27745341      -1.12457244      -0.28627523      -0.53352194       1.40343316       0.41177814
H        0.01239875       0.07682428       0.01451665      -0.50705912      -0.48867676       0.34025930
H        0.70441896      -1.17594090      -1.11989692       0.66299191      -0.61789013      -1.12140832
H        0.35410551      -1.86112692       0.30592135       0.12802141      -0.79350317       0.40898335
7
Properties=species:S:1:pos:R:3:REF_forces:R:3 REF_energy=-224.2976584604572 pbc="F F F"
O        1.14971877      -0.12017852       0.16219324       0.93959172      -0.11617788      -0.23470883
H        1.40036510      -0.90543845       0.64803536       0.03028400      -0.27263928       0.43348854
H        1.69980164      -0.06922263      -0.62246099       0.19293200       0.21637223      -0.19261472
O       -1.15105453       0.11479996      -0.13206516      -1.08351129       0.83294338       0.37209573
H        0.03993044       0.01814126      -0.00952514      -0.26930765      -0.04300685       0.23493508
H       -1.47131106       0.37287049      -0.99517411      -0.13953429      -0.13520353      -0.56517582
H       -1.64758476       0.66901796       0.50093133       0.32954552      -0.48228808      -0.04801947
7
Properties=species:S:1:pos:R:3:REF_forces:R:3 REF_energy=-224.25154823247647 pbc="F F F"
O        1.02870836       0.44204486      -0.51537543       0.99898884      -1.01311499       1.19476704
H        1.87114100       0.07981993      -0.10043796      -1.38778491       0.74721097      -0.87433609
H        1.05946451       0.91409290      -1.34664678       0.24038839       0.22917735      -0.41505116
O       -1.02732916      -0.42503871       0.54235390      -0.02529657       1.73668930      -1.67062685
H        0.08831830       0.06566273      -0.14224669       0.06269944      -0.13436997       0.47171673
H       -1.18069723      -1.21786336       1.01219154      -0.17925270      -1.41824838       0.93435695
H       -1.86011744      -0.11163412       0.14893696       0.29025751      -0.14734479       0.35917337
7
Properties=species:S:1:pos:R:3:REF_forces:R:3 REF_energy=-224.33476227836124 pbc="F F F"
O       -0.13080486       1.20592380      -0.01153496      -0.63616759       0.28241153      -1.42429818
H       -0.43412584       1.76095770      -0.78329535       0.35333079      -0.98468527       0.95711379
H        0.12549585       1.79573403       0.69486128       0.19590162       0.18451626       0.58566083
O        0.11413201      -1.21805479       0.02000623      -0.66332307       1.18849869      -1.37403722
H       -0.08796765      -0.01852153       0.05188262       0.31349823      -0.17961368      -0.17430127
H        0.16815587      -1.66420785      -0.84933045       0.00766549       0.14847813       0.68394640
H        0.49307372      -1.68141915       0.75142563       0.42909401      -0.63960618       0.74591565
7
Properties=species:S:1:pos:R:3:REF_forces:R:3 REF_energy=-224.28803168526142 pbc="F F F"
O       -0.35235303       1.13620141       0.22826212       0.01132931       1.35284671       1.47347927
H       -0.92214571       1.62913051      -0.37927584       0.00252894      -0.19927594      -0.17428430
H       -0.22998687       1.75321998       1.02351693      -0.04110217      -1.43120057      -1.37005819
O        0.34714716      -1.14966735      -0.22428673       0.53191346      -0.17818312       1.03520077
H       -0.01968784      -0.11296009       0.02240450       0.21163472      -0.01497925      -0.00995634
H        0.31503703      -1.42271583      -1.15529663       0.18848553      -0.16314474       0.28417531
H        0.93941102      -1.63294277       0.42555362      -0.90478927       0.63393638      -1.23855602
7
Properties=species:S:1:pos:R:3:REF_forces:R:3 REF_energy=-224.29393074855307 pbc="F F F"
O       -0.21529848       0.90464133       0.78419445      -0.48822681       1.07203954       0.46904741
H        0.21472874       1.80205427       0.81715951      -0.41976759      -1.20148277      -0.22286787
H       -0.93028627       0.82758893       1.46139197       0.68361781      -0.07081487      -0.68182627
O        0.22654995      -0.91684649      -0.77423205      -0.69072949       0.46531314      -0.00543943
H       -0.12537170       0.14449325      -0.04679472       0.60601472      -0.22009827       0.39732803
H        1.08646881      -1.17538866      -1.10344412       0.56387999       0.03610498       0.04586591
H       -0.42412310      -1.40502704      -1.28643610      -0.25478811      -0.08106226      -0.00210728
7
Properties=species:S:1:pos:R:3:REF_forces:R:3 REF_energy=-224.34133253763622 pbc="F F F"
O       -0.25147535       0.95735701       0.66833106      -0.22913930       0.96491709       1.72309484
H        0.30489758       1.24077141       1.44583941      -0.51368588      -0.46819175      -1.14049671
H       -1.14041999       1.37685179       0.79774846       0.83337481      -0.57528283      -0.45525087
O        0.25881828      -0.94799815      -0.69554482       0.07190142       0.61450656       0.54897993
H        0.01725178      -0.02229483       0.02873774       0.01423671       0.02200247      -0.36067541
H        1.14146103      -1.14878688      -1.03616957      -0.17051506      -0.15652363      -0.07069711
H       -0.43973774      -1.59508539      -0.80421870      -0.00617219      -0.40142739      -0.24495519
7
Properties=species:S:1:pos:R:3:REF_forces:R:3 REF_energy=-224.12964138444337 pbc="F F F"
O       -0.40379765       1.11950376       0.23100374      -1.30155782      -1.41101072      -1.75934123
H       -0.45553935       1.39464879      -0.69534534      -0.12041403       0.34400026       0.36820668
H        0.15064681       1.62233986       0.76301854       1.40501748       1.65148550       1.43375573
O        0.34248357      -1.13118427      -0.19738900      -1.05484863       1.37180808      -0.35015394
H       -0.09140144       0.09491937       0.19116205      -0.14903606      -0.42801157      -0.15273588
H        0.40380414      -1.34857418      -1.12217643       0.04191875      -0.39454661      -0.49734755
H        0.96566822      -1.57794043       0.32980732       1.17892082      -1.13372545       0.95761670
7
Properties=species:S:1:pos:R:3:REF_forces:R:3 REF_energy=-224.30664978454297 pbc="F F F"
O       -0.40256436       1.12598229       0.17771748      -1.09063119       0.11961184      -1.54224498
H       -0.61888733       1.68695406      -0.58664790      -0.11559475      -0.49047242       0.15700288
H        0.11821810       1.64095867       0.74813975       1.09272149       0.84851090       1.47192633
O        0.38741179      -1.13032244      -0.15511952      -0.41612742       0.36822777      -1.06100076
H       -0.07481352       0.11029069       0.02569950       0.17265113      -0.45985983       0.04888079
H        0.18973948      -1.55522775      -1.00375592       0.09018145       0.12780955       0.16133365
H        0.62624529      -1.81408872       0.45788903       0.26679979      -0.51382832       0.76410260
7
Properties=species:S:1:pos:R:3:REF_forces:R:3 REF_energy=-224.2263572915596 pbc="F F F"
O        0.67646946       0.95322858      -0.53580524      -1.09467296       0.52917781       1.13505934
H        0.64324916       1.93368585      -0.46344221      -0.09500998      -0.88278576       0.06511679
H        1.36384011       0.73564239      -1.13702510       1.03466084      -0.30365759      -0.91022818
O       -0.67227679      -0.94799020       0.55227164       0.03766872       1.03841208       0.15333289
H        0.00982815      -0.20767037       0.16713091      -0.73003806       0.16670828       0.10035222
H       -0.54156474      -1.83458293       0.20391649      -0.19601783      -0.25577233       0.01857931
H       -1.54189899      -0.71021867       0.96806473       1.04340876      -0.29208197      -0.56221134
7
Properties=species:S:1:pos:R:3:REF_forces:R:3 REF_energy=-224.31377985816667 pbc="F F F"
O        1.12439655      -0.38499720      -0.22347194      -0.53891457      -0.88016427      -0.78004962
H        1.34453850      -1.07644316      -0.87923768      -0.56521799       0.36058953       0.31319433
H        1.95018012      -0.06231641       0.09720901       0.87156084       0.71248873       0.66435048
O       -1.13505491       0.39983812       0.21967316       0.98152282       0.02313273       0.65435763
H        0.05891820       0.03199106       0.04262521      -0.45701773      -0.09636907      -0.34275739
H       -1.29740026       0.77996310       1.11156971      -0.31071990      -0.30485315      -0.83160898
H       -1.88706698       0.09124999      -0.31187205       0.01878654       0.18517549       0.32251303
7
Properties=species:S:1:pos:R:3:REF_forces:R:3 REF_energy=-224.39841477636898 pbc="F F F"
O       -0.15511931       0.76080447       0.90022558      -0.01496382       0.04728979       0.26984655
H       -0.32111931       1.70080447       0.75722558      -0.00409782       0.03667628      -0.10935365
H       -0.14011931       0.56480447       1.84522558       0.00959741      -0.05609479       0.03077456
O        0.15188069      -0.73919553      -0.92877442       0.14931168      -0.70604401       0.00582252
H        0.01188069      -0.06319553      -0.03377442      -0.04530284       0.27137482      -0.08307955
H        1.02988069      -1.13319553      -1.04177442      -0.07887528       0.20627037      -0.05528026
H       -0.52911931      -1.41219553      -1.07377442      -0.01566985       0.20052806      -0.05873017
7
Properties=species:S:1:pos:R:3:REF_forces:R:3 REF_energy=-224.32378841179295 pbc="F F F"
O       -0.24579861       0.96904872       0.66913479       0.40250109       0.21882866       0.77707485
H        0.20249956       1.16841429       1.53305414      -0.45383831      -0.25047380      -1.10721120
H       -1.12696525       1.36981959       0.64748001       0.09190923       0.03901752      -0.04465492
O        0.25117621      -0.95152948      -0.69494553       0.06230555      -0.01320879      -0.14259288
H        0.06108477       0.05984664      -0.18428249      -0.16680033      -0.39906455       0.53857827
H        1.16468479      -1.18363026      -0.93959478      -0.39293247      -0.03804873       0.03463790
H       -0.38665732      -1.69251613      -0.64698823       0.45685524       0.44294917      -0.05583202
7
Properties=species:S:1:pos:R:3:REF_forces:R:3 REF_energy=-224.33564402786598 pbc="F F F"
O       -0.57643038      -1.07528702       0.08004352      -0.26477068       0.89112488       1.03825421
H       -0.60403265      -1.70141137      -0.62865786       0.14890134      -0.54722798      -0.88958428
H       -1.18119202      -1.38559403       0.77833134       0.33776636       0.32287762      -0.14758493
O        0.58890809       1.06714705      -0.06282852      -1.01100515       1.09058491       0.44338369
H       -0.03420802       0.04353814       0.03074975       0.20551240      -0.15155472      -0.09060363
H        1.36291090       1.19437420      -0.61170526       0.44686290      -0.33522354      -0.28950367
H        0.25847525       1.97829086       0.15804529       0.13673282      -1.27058065      -0.06436192
7
Properties=species:S:1:pos:R:3:REF_forces:R:3 REF_energy=-224.2789679925014 pbc="F F F"
O        0.28885343       1.13297561      -0.30563766       1.31320595       0.03762861       0.64036363
H       -0.16442669       1.61907366      -1.00185502      -0.11705668       0.15802207      -0.12287714
H        1.17326518       1.52474937      -0.08701778      -1.09965679      -0.32234231      -0.31387258
O       -0.32157306      -1.13140812       0.31025717       0.29091469       1.54350996       2.00968905
H       -0.02254176      -0.08113245       0.10739147      -0.22464861       0.04538100      -0.68242174
H       -0.29284974      -1.79494540      -0.36336965       0.08712441      -0.95509547      -0.46945570
H       -0.17412021      -1.29262447       1.27152998      -0.24988348      -0.50710437      -1.06142500
7
Properties=species:S:1:pos:R:3:REF_forces:R:3 REF_energy=-224.27368751470436 pbc="F F F"
O        1.07640810      -0.41518996      -0.20063791      -0.09820021      -1.42954940      -1.62137942
H        1.16953154      -1.16499247      -0.86247470       0.19776156       1.25421712       1.23359636
H        1.78693468      -0.22369527       0.40956590       0.57421120      -0.10271918       0.18419539
O       -1.06660859       0.43468552       0.19646603      -0.40122685      -1.84774450      -2.09771900
H        0.02332121       0.04200620      -0.03300782       0.11279945       0.05107034       0.21463519
H       -1.33928210       1.04305533       0.83173482      -0.73001389       1.66080729       1.70092679
H       -1.79604354      -0.00580769      -0.27960194       0.34466875       0.41391781       0.38574469
7
Properties=species:S:1:pos:R:3:REF_forces:R:3 REF_energy=-224.33683982394672 pbc="F F F"
O       -0.24235315       1.17157175       0.07026767       0.74483681      -0.84717495       0.79458715
H       -0.69731457       1.49525021      -0.69319685      -0.51698718       0.67503290      -0.61346320
H       -0.00127167       1.79215338       0.77390795      -0.17985691       0.07217396      -0.23089588
O        0.20642056      -1.18378447      -0.06103541      -0.03369174       0.59862022       0.51078928
H        0.01511480      -0.01984353       0.05189156      -0.18424012      -0.05604954       0.09577771
H        0.57453508      -1.41142111      -0.90250236       0.20392860      -0.31401965      -0.90334122
H        0.67925928      -1.66229851       0.62336492      -0.03398999      -0.12858242       0.34654565
7
Properties=species:S:1:pos:R:3:REF_forces:R:3 REF_energy=-224.33859125470764 pbc="F F F"
O       -0.25109731       0.94268890       0.68536485      -0.78229470      -0.35432684      -0.02891977
H        0.45340089       1.27175177       1.24333354       0.18468338       0.28994178       0.29938236
H       -1.13640542       1.33018346       0.83203813       0.55954974      -0.14980482      -0.01793910
O        0.25614021      -0.93295650      -0.68605865       0.05912972      -0.68549112      -0.29857195
H       -0.05672428      -0.06762951       0.12262026       0.25632255       0.54116635      -0.38274987
H        1.07093077      -1.14497382      -1.17200649       0.00148713       0.37855434       0.33661399
H       -0.41124283      -1.54380488      -1.01497330      -0.27887730      -0.02004021       0.09218434
7
Properties=species:S:1:pos:R:3:REF_forces:R:3 REF_energy=-224.257310746325 pbc="F F F"
O       -0.29746271       1.15946941       0.20557417      -1.14816991      -0.61688843       0.38313297
H       -1.21904513       1.36155198      -0.10999058       1.20066361      -0.01005764       0.42486557
H       -0.21893178       1.22973883       1.18241975      -0.10167788       0.30751990      -0.77324442
O        0.32840939      -1.11679822      -0.23096702       0.09171897      -1.29891884      -0.72147782
H        0.02841841       0.03877724      -0.07616342       0.02108408       0.44397093       0.03746200
H        0.28539583      -1.61485561      -1.09642437       0.09138678       0.76589775       1.15595984
H        0.63297635      -1.69249069       0.50319463      -0.15500616       0.40847685      -0.50669865
7
Properties=species:S:1:pos:R:3:REF_forces:R:3 REF_energy=-224.3345244154954 pbc="F F F"
O       -0.23962022       0.97505632       0.65846664      -0.38715983       0.06316327       0.35693856
H        0.06872522       1.08996281       1.59144460      -0.45779164       0.09442326      -0.95625607
H       -1.05226984       1.46340322       0.39351081       0.73233508      -0.17329391       0.48960030
O        0.24258432      -0.94978716      -0.69652518       0.34857425      -0.56993494       0.06942545
H        0.02012168      -0.02840783      -0.09355533       0.15458965       0.23876140       0.20419137
H        1.16654147      -1.19706538      -0.88022215      -0.30773896       0.29492869      -0.03069332
H       -0.25016497      -1.72896552      -0.40711200      -0.08280855       0.05195223      -0.13320629
7
Properties=species:S:1:pos:R:3:REF_forces:R:3 REF_energy=-224.09453505351365 pbc="F F F"
O       -1.15748682       0.00309124      -0.14340048      -0.41769117       2.08882761      -2.80966472
H       -1.39453987      -0.57154350       0.51548250      -1.47137200      -1.98716875       2.23696893
H       -1.82674386       0.35832693      -0.77618536       0.62144031      -0.43726395       0.65376936
O        1.17658364       0.01991357       0.10413627       0.03176958      -0.12145892       0.42109428
H       -0.07183434      -0.01832254      -0.18054027       0.88547000       0.51674755      -0.07798928
H        1.54685392      -0.84512652       0.32931156       0.25012876       0.19948934      -0.08330940
H        1.44315897       0.71153284       0.73513411       0.10025452      -0.25917236      -0.34086917
7
Properties=species:S:1:pos:R:3:REF_forces:R:3 REF_energy=-224.12248643961524 pbc="F F F"
O        1.15576861      -0.24854768       0.28463242      -0.54549814      -2.17102064      -0.52487944
H        1.47470491      -1.18529372       0.36332180      -0.45142764       1.14521365      -0.35842672
H        1.70724244       0.24099154       0.85607346       1.10686976       1.17571003       0.95232228
O       -1.14988497       0.29032891      -0.34623789      -0.90451570      -0.52708390       0.11987152
H       -0.13556129       0.28538437      -0.17409856       0.54113601      -0.27017103       0.14457108
H       -1.45384584      -0.62090632      -0.44769437       0.19563474       0.02241231      -0.49007287
H       -1.68592552       0.61667127       0.38020113       0.05780097       0.62493958       0.15661413
7
Properties=species:S:1:pos:R:3:REF_forces:R:3 REF_energy=-224.23123160680552 pbc="F F F"
O       -0.32536549       1.17415537       0.21161330       0.70872824      -1.66476371      -1.86565430
H       -1.13215516       1.45932897      -0.21274028      -0.35681978       0.30874632      -0.12074827
H       -0.30482111       1.33467278       1.12865324      -0.02800806       0.53758583       1.71509768
O        0.34577691      -1.14050551      -0.22121196      -0.41934027       1.28596408      -0.15415153
H        0.09451748       0.02026388      -0.09818042      -0.28169214       0.29114712       0.43784090
H        0.25906997      -1.60608689      -1.03581312      -0.25276208      -0.26155166      -1.21962910
H        0.75941838      -1.74227017       0.37043083       0.62989410      -0.49712849       1.20724461
7
Properties=species:S:1:pos:R:3:REF_forces:R:3 REF_energy=-224.25406188674046 pbc="F F F"
O       -0.17450469       1.20892721       0.01460540      -0.30543474      -0.66335598      -0.81778930