13
Properties=species:S:1:pos:R:3 ipi_comment="Step:        1820  Bead:       0 positions{ase}  cell{ase}" pbc="F F F"
H       -0.09367743       0.53007194      -0.01149500
H        0.36919611       1.04093595       1.82958410
H        1.05184404      -1.36538415       0.10211366
H        1.20661311      -1.96029001      -1.46786479
H        2.15799709      -2.50172924      -0.31218363
H       -1.76362647       1.28691765      -0.49242225
H       -0.37001361       1.73871632      -1.39106696
H        1.16983390       2.48319330       2.31876393
H       -0.24432969       2.11344333       3.12445318
O        0.42848171       0.06719592       0.97911548
O        1.26653563      -2.12295470      -0.47262744
O       -0.85303897       1.03472596      -0.83460630
O        0.30144624       2.03458540       2.29631161
13
Properties=species:S:1:pos:R:3 ipi_comment="Step:        1180  Bead:       0 positions{ase}  cell{ase}" pbc="F F F"
H       -0.41858411       0.98554131      -0.38319903
H        0.35715203       0.48629387       1.45763947
H        1.27074601      -0.64034626       0.12152975
H        1.74716059      -1.89615534      -0.75954954
H        2.51633616      -1.67828323       0.63704842
H       -1.94518529       1.86343733      -0.69162227
H       -0.83606100       2.07552463      -1.77390545
H        0.62575409       0.95463801       3.18697675
H       -0.94693332       0.62612418       2.82762484
O        0.71000960       0.70802459       0.29131551
O        1.65886237      -1.56167421       0.15035042
O       -1.16941352       1.40242380      -1.10012333
O        0.01411802       0.50189407       2.56851949
13
Properties=species:S:1:pos:R:3 ipi_comment="Step:        3020  Bead:       0 positions{ase}  cell{ase}" pbc="F F F"
H       -0.78803973       0.32960526      -0.10152002
H        0.77911234       1.36792061       1.14605026
H        0.58890205      -0.62122310       1.00947251
H        1.12023050      -2.03576774       1.84262835
H        1.42514469      -1.99438259       0.22757815
H       -2.31591164       0.68744610      -1.01375871
H       -0.93104401       0.59892573      -1.77008451
H        2.70684804       1.82601031       1.37506632
H        1.67249533       2.97742026       0.86009398
O       -0.05627692       0.51632252       1.15696479
O        0.75311019      -1.71130614       0.95856598
O       -1.41798262       0.21886284      -1.04614497
O        1.81581518       2.00415925       0.90664247
13
Properties=species:S:1:pos:R:3 ipi_comment="Step:        6940  Bead:       0 positions{ase}  cell{ase}" pbc="F F F"
H       -2.94170781       1.76939093       3.37103890
H        7.40173941      -5.61232517     -10.62494339
H       -2.35988222       2.62505769       5.16179662
H       -0.78316557       2.84747630       6.19135410
H       -1.45929477       4.25747227       5.87858267
H       -2.01744202       1.29735738       2.00268565
H       -3.49427671       1.73510409       1.53871016
H        8.13867151      -5.32571456      -9.21278412
H        8.90178186      -6.15241791     -10.44101808
O       -3.12940421       1.99930798       4.64036686
O       -1.57666326       3.27328507       5.80512559
O       -2.88456332       1.54688005       2.30876316
O        8.23616133      -5.43265532     -10.16645257
13
Properties=species:S:1:pos:R:3 ipi_comment="Step:        1260  Bead:       0 positions{ase}  cell{ase}" pbc="F F F"
H       -0.20325817       1.07847306      -0.34391005
H        0.28327927       0.78444638       1.64267378
H        1.19300726      -0.55747069       0.15856726
H        1.05439442      -1.98876384      -0.74900823
H        2.50368541      -1.76320100       0.14696579
H       -2.02432534       0.97221429      -1.05003049
H       -1.05633497       1.46562706      -2.12030673
H        0.76823524       1.19009463       3.14934175
H       -0.83065431       0.77227975       3.10859086
O        0.75260103       0.75726419       0.34777395
O        1.54163147      -1.59843811       0.04167152
O       -1.10148099       1.29745576      -1.17062770
O        0.06381609       0.64624336       2.73406553
13
Properties=species:S:1:pos:R:3 ipi_comment="Step:        1000  Bead:       0 positions{ase}  cell{ase}" pbc="F F F"
H       -0.48414819       1.27037529      -0.45323445
H        0.25237569       0.40730109       1.30037104
H        1.56170028      -0.68751490       0.48781920
H        1.56955972      -1.97039650      -0.52480794
H        2.19621637      -2.09957006       0.92855324
H       -2.06949642       2.08450178      -0.73618205
H       -1.01021716       2.12608725      -1.92829559
H        0.24007937       0.76643186       3.10084050
H       -1.06408241      -0.08543986       2.88708469
O        0.60660361       0.63357694       0.30273058
O        2.07150564      -1.46890457       0.15184942
O       -1.19143808       1.75755214      -1.03484448
O       -0.19885099       0.18924244       2.46262969
13
Properties=species:S:1:pos:R:3 ipi_comment="Step:        2060  Bead:       0 positions{ase}  cell{ase}" pbc="F F F"
H       -0.23400711       0.57352729      -0.08121675
H        0.58562343       1.02828828       1.57834266
H        0.73498587      -1.08769679       0.36406163
H        2.14739987      -2.08863281      -0.08726859
H        0.85547414      -2.13699783      -1.00304384
H       -1.95655813       0.63274854      -0.93612373
H       -0.97894980       1.65783320      -1.61109398
H        1.50280485       2.72573850       1.98481172
H        0.23477025       2.29908059       2.89262133
O        0.27479872       0.05849895       0.96221834
O        1.15793595      -2.05246840      -0.08292797
O       -0.98877763       0.89432329      -0.97947760
O        0.73678441       2.09820293       2.10610682
13
Properties=species:S:1:pos:R:3 ipi_comment="Step:        5420  Bead:       0 positions{ase}  cell{ase}" pbc="F F F"
H       -1.60735641       1.33965518       1.17753348
H        3.53104050      -2.31511580      -5.12223538
H       -0.47032922       1.29787692       3.09660558
H        0.79795607       0.25399867       3.93809600
H       -0.61842107       0.43016645       4.56836609
H       -2.26960271       0.34728854      -0.22507779
H       -3.19294279       0.96150132       0.90519459
H        4.51373668      -2.74894865      -3.85031484
H        5.08408656      -1.67652652      -4.96871655
O       -1.00733687       1.99084912       2.07619538
O        0.02037063       0.83047572       3.96287842
O       -2.30548370       0.62578790       0.73276196
O        4.29195274      -2.08855192      -4.54025879
13
Properties=species:S:1:pos:R:3 ipi_comment="Step:         240  Bead:       0 positions{ase}  cell{ase}" pbc="F F F"
H       -0.19981642       1.31397598      -0.21436962
H       -0.19765578      -0.24368921       0.94289070
H        1.55959983      -0.28983427       0.10017409
H        3.16022191       0.05381860      -0.42359900
H        2.92291990      -1.02930261       0.77075872
H       -0.46227299       2.75210348      -1.09368466
H       -0.08362866       2.94258890       0.43019137
H       -0.91458863      -0.24233760       2.96519830
H       -1.87760181      -0.57188831       1.75937696
O        0.09971537      -0.14026218      -0.07354675
O        2.52506885      -0.53763207       0.03983014
O       -0.55321600       2.34500349      -0.18412313
O       -0.95481572      -0.73669413       2.08919260
13
Properties=species:S:1:pos:R:3 ipi_comment="Step:        4240  Bead:       0 positions{ase}  cell{ase}" pbc="F F F"
H       -0.76310806       0.88801959       0.18182870
H        1.18279446       0.41924215      -0.27716368
H        0.63979111      -0.12181905       1.55988542
H        0.11526702      -1.47085440       2.62146134
H        1.52850955      -0.69160484       2.99856748
H       -2.02964344       0.07407551      -0.91595540
H       -2.44429412       1.11431184       0.42228286
H        2.57580839       1.04377561      -0.97862474
H        1.67131678       0.00470190      -1.85291365
O        0.29177998       0.94983948       0.67873384
O        0.72339261      -0.75050009       2.42487837
O       -1.79140843       0.72804328      -0.23992792
O        1.98313033       0.21885789      -0.89923880
13
Properties=species:S:1:pos:R:3 ipi_comment="Step:        1600  Bead:       0 positions{ase}  cell{ase}" pbc="F F F"
H        0.04506420       0.62919720      -0.30218360
H        0.52259858       1.13077851       1.81915364
H        1.12475736      -0.89563092      -0.30593894
H        2.10831339      -2.30895656      -0.28764657
H        0.72840482      -2.26083718      -1.03238849
H       -1.81250120       0.48930381      -1.35870193
H       -0.74171081       1.65320821      -1.83158349
H        0.94217672       1.92930259       3.34668114
H       -0.51014291       1.34859603       3.33593394
O        0.63831445       0.50971744       0.66769716
O        1.22959430      -1.82945494      -0.29424073
O       -0.93416856       0.95019572      -1.15523744
O        0.27753191       1.48710841       2.76991866
13
Properties=species:S:1:pos:R:3 ipi_comment="Step:        2600  Bead:       0 positions{ase}  cell{ase}" pbc="F F F"
H        0.00991159       0.27647900       0.03230201
H        1.06631118       1.70207758       1.13766142
H        0.52844860      -1.37876287       0.27231258
H        1.09277089      -2.91989412       0.19983545
H       -0.56452266      -2.68439857       0.44848479
H       -2.02165843       0.25123521      -0.32751818
H       -0.93039739       0.34825193      -1.57415032
H        0.16046434       3.04368623       1.98480625
H        1.65056683       3.37470247       1.57432443
O        1.05296618       0.49202389       0.43146770
O        0.33566564      -2.32348831       0.40087165
O       -1.11511163       0.31294278      -0.60575869
O        1.02690658       2.61728694       1.73857740
13
Properties=species:S:1:pos:R:3 ipi_comment="Step:        2640  Bead:       0 positions{ase}  cell{ase}" pbc="F F F"
H       -0.02358099       0.26957720      -0.13182715
H        1.08007733       1.75202345       1.14453272
H        0.48490985      -1.40875494       0.64411194
H        1.15352722      -2.78610602       0.03504078
H       -0.26467527      -2.82230211       1.03716929
H       -2.01504707       0.56860295      -0.22436676
H       -1.03448608       0.29379531      -1.60137198
H        0.59957082       2.78415381       2.50876324
H        1.85897056       3.24039729       1.69392035
O        0.99653832       0.48550418       0.50727894
O        0.33528011      -2.41895028       0.41436131
O       -1.15047397       0.32883416      -0.66246398
O        1.06569458       2.71106309       1.62042786
13
Properties=species:S:1:pos:R:3 ipi_comment="Step:        4100  Bead:       0 positions{ase}  cell{ase}" pbc="F F F"
H       -0.89589221       0.95083800       0.07555680
H        0.99097349       0.64135586       0.05822411
H        0.69435610      -0.37620878       1.76534722
H        1.13284133      -1.91919356       2.41171853
H        1.06953500      -0.69046474       3.59960785
H       -1.97283117       1.30185797      -1.35153170
H       -2.64990991       0.48017204      -0.15797350
H        2.67750818       1.27969878      -0.96555259
H        2.12424330      -0.13216190      -1.55946780
O        0.24233733       0.62993750       0.75587117
O        0.80981290      -1.03616972       2.67668985
O       -1.81420030       0.88862782      -0.46914384
O        1.92519573       0.64645302      -1.00631546
13
Properties=species:S:1:pos:R:3 ipi_comment="Step:        3760  Bead:       0 positions{ase}  cell{ase}" pbc="F F F"
H       -1.05643332       0.54611947      -0.49478138
H        0.71791902       0.44505252       0.02985996
H        0.77392286      -0.67236532       1.82569847
H        1.61114808      -0.63382688       3.24484638
H        1.60257400      -1.97658596       2.39110984
H       -2.02222468       1.78854198      -0.23957201
H       -1.89930072       1.10949462      -1.85658259
H        1.92943277       1.60251217       0.55070667
H        2.17948496       1.12828599      -0.88725575
O        0.15232215      -0.46120697       0.47485091
O        1.04905336      -1.21935071       2.64919761
O       -1.54455936       1.26761389      -0.90406413
O        1.46438786       1.42830122      -0.30623574
13
Properties=species:S:1:pos:R:3 ipi_comment="Step:        1480  Bead:       0 positions{ase}  cell{ase}" pbc="F F F"
H       -0.29214672       0.69870391      -0.45949337
H        0.48292232       1.03912138       1.79168760
H        0.89918817      -0.66046508       0.03789557
H        1.48583182      -2.12583065       0.58017823
H        1.53183469      -2.06920282      -1.07067647
H       -1.84351450       0.74341951      -1.15102993
H       -0.77759379       1.83423220      -1.52112732
H        0.92475339       1.40734895       3.50100403
H       -0.65696795       0.97428691       3.19814607
O        0.65795823       0.72553940       0.51100793
O        1.22112710      -1.63402158      -0.22398414
O       -0.89300968       0.89144658      -1.27879196
O        0.26631614       1.12662261       2.88393453
13
Properties=species:S:1:pos:R:3 ipi_comment="Step:        4340  Bead:       0 positions{ase}  cell{ase}" pbc="F F F"
H       -0.89385846       0.91960710       0.27364019
H        1.25707724       0.46913354      -0.25357037
H        0.66583363       0.13234884       1.59736593
H       -0.03489967      -0.31830702       3.00551781
H        1.41547856      -0.73359518       3.01759537
H       -2.23412000      -0.23976326      -0.04040847
H       -2.69873307       1.22525802       0.15881162
H        2.96681081       0.25847408      -0.65041063
H        2.05484189      -0.64690761      -1.50478212
O        0.39566588       0.97896607       0.54800164
O        0.68078377      -0.67062400       2.37857163
O       -1.93733880       0.69121121      -0.09363059
O        2.06639823       0.15888484      -0.98470109
13
Properties=species:S:1:pos:R:3 ipi_comment="Step:        2580  Bead:       0 positions{ase}  cell{ase}" pbc="F F F"
H        0.08542367       0.49734709      -0.03378726
H        1.04040011       1.63000903       1.23286726
H        0.55958311      -1.31373318       0.15112205
H        1.06740649      -2.93338624       0.23626504
H       -0.50819751      -2.66047452       0.16057284
H       -1.98162772       0.24963432      -0.29555851
H       -1.06763173       0.43900906      -1.58433497
H        0.08518869       2.95833102       1.66626508
H        1.68472852       3.22666009       1.41848486
O        1.03581685       0.45550530       0.40697791
O        0.35838891      -2.24994901       0.40970655
O       -1.08870784       0.31474859      -0.59756021
O        0.99660611       2.57341885       1.79619515
13
Properties=species:S:1:pos:R:3 ipi_comment="Step:        3900  Bead:       0 positions{ase}  cell{ase}" pbc="F F F"
H       -0.97948633       0.68140564      -0.34308103
H        0.85093459       0.41572317      -0.07010330
H        0.88460709      -0.87430215       1.72048283
H        1.86040184      -1.05122035       3.27364845
H        0.26136345      -1.43695483       3.37745271
H       -1.88765293       2.04689721      -0.26453817
H       -2.26950092       0.85699253      -1.52226102
H        2.01542150       1.76442709      -0.06279028
H        2.35012406       0.51026238      -0.96168776
O        0.21559812      -0.19681336       0.70142760
O        1.03574490      -1.17435690       2.76922669
O       -1.73394576       1.23259164      -0.82116363
O        1.65107928       1.18064959      -0.77247915
13
Properties=species:S:1:pos:R:3 ipi_comment="Step:         820  Bead:       0 positions{ase}  cell{ase}" pbc="F F F"
H       -0.43032689       1.38184139      -0.35472179
H        0.06047740       0.47960266       1.40119070
H        1.41883272      -0.49694726       0.24713775
H        1.86481843      -2.12655898      -0.22244831
H        2.84117520      -1.30647229       0.76609482
H       -1.67780999       2.38693626      -0.49275052
H       -0.53579246       2.44691975      -1.72032985
H       -0.27220145       0.35710709       3.35178853
H       -0.24334576      -1.01005356       2.52011282
O        0.40824758       0.36291355       0.32077514
O        2.16874027      -1.18352745       0.04640122
O       -0.98665592       1.93824866      -1.01253155
O       -0.41805089      -0.02510674       2.50038137
13
Properties=species:S:1:pos:R:3 ipi_comment="Step:        1080  Bead:       0 positions{ase}  cell{ase}" pbc="F F F"
H       -0.43014877       1.09488268      -0.53411524
H        0.21467642       0.46685682       1.54721054
H        1.09950111      -0.35378279      -0.00938997
H        2.05325329      -2.24568025      -0.42659500
H        2.17919350      -1.79803985       1.07011961
H       -1.96497401       1.87465957      -0.49985293
H       -1.02115309       2.03785082      -1.89018166
H        0.50153756       0.36746295       3.32038214
H       -0.72862674      -0.37811402       2.62106824
O        0.67164243       0.62820795       0.13462675
O        1.87666637      -1.48750508       0.20383587
O       -1.17692686       1.63748071      -1.02098066
O       -0.12837470       0.38026414       2.55628339
13
Properties=species:S:1:pos:R:3 ipi_comment="Step:        1460  Bead:       0 positions{ase}  cell{ase}" pbc="F F F"
H       -0.17389529       0.84069310      -0.11174445
H        0.44839889       0.98038369       1.77256139
H        1.02403527      -0.61274260      -0.03235195
H        1.34113731      -2.36967225       0.45002732
H        1.56388967      -1.83319793      -1.09922589
H       -1.87160507       0.75331139      -1.18929016
H       -0.84466193       1.83273084      -1.61856113
H        0.79920379       1.49598605       3.54427785
H       -0.68398250       1.10248328       3.20448913
O        0.64682083       0.75115047       0.48248056
O        1.24821871      -1.63285105      -0.18152371
O       -0.90272319       0.91225648      -1.29031660
O        0.26963863       1.05708298       2.88066940
13
Properties=species:S:1:pos:R:3 ipi_comment="Step:        1380  Bead:       0 positions{ase}  cell{ase}" pbc="F F F"
H       -0.26122397       0.79464675      -0.49089774
H        0.34858090       0.80109745       1.64578092
H        0.96615727      -0.47861782       0.24768657
H        0.64475301      -2.17569507       0.05093353
H        1.97204112      -1.78571267      -0.78430141
H       -1.92885299       0.65784242      -1.27637301
H       -0.87290737       1.58007289      -2.11158124
H        0.78312517       1.57853557       3.22222744
H       -0.66269451       1.15008678       3.04740860
O        0.74023615       0.70340734       0.56509780
O        1.34623555      -1.50506121      -0.09811866
O       -1.00285578       1.04586845      -1.27678688
O        0.21699460       0.84769089       2.78738858
13
Properties=species:S:1:pos:R:3 ipi_comment="Step:        1860  Bead:       0 positions{ase}  cell{ase}" pbc="F F F"
H       -0.28786417       0.49195667       0.11122897
H        0.44500907       1.20417220       1.88334227
H        0.92844742      -1.25554866      -0.28726425
H        0.99740508      -2.58168721      -1.34863686
H        2.25029622      -2.17124991      -0.31887627
H       -1.65419295       1.42562950      -0.52529413
H       -0.13230725       1.57956333      -1.04732689
H        0.93229759       2.84780282       1.96606167
H       -0.42546964       2.43426980       2.82214337
O        0.32055967       0.00504565       0.94820860
O        1.28874037      -2.14177552      -0.48268523
O       -0.83589751       0.99029269      -0.77706488
O        0.39712737       2.12161826       2.30774038
13
Properties=species:S:1:pos:R:3 ipi_comment="Step:        3000  Bead:       0 positions{ase}  cell{ase}" pbc="F F F"
H       -0.81359406       0.45292423      -0.15176983
H        0.79165827       1.16541045       0.96751217
H        0.29097831      -0.64522274       1.00782672
H        0.79364397      -2.31655392       1.70407008
H        1.44094691      -2.00408739       0.25379993
H       -2.31009374       0.63058042      -0.93598908
H       -0.96983510       0.59292871      -1.82047886
H        2.73257720       1.99581610       1.30459982
H        1.63307378       3.02549866       0.77667202
O       -0.04630222       0.46753043       1.15771197
O        0.74252487      -1.71336041       0.91390900
O       -1.36299427       0.22221312      -1.01373529
O        1.80354815       2.06669187       0.94770928
13
Properties=species:S:1:pos:R:3 ipi_comment="Step:        3840  Bead:       0 positions{ase}  cell{ase}" pbc="F F F"
H       -0.75592044       0.88695250      -0.48113901
H        0.83983139       0.46325684       0.15886599
H        0.82859026      -1.00417917       1.74748741
H        1.67156031      -0.56138180       3.26174828
H        0.54434118      -1.85164155       3.30083603
H       -2.03157080       2.05748965      -0.47458464
H       -1.49471826       1.21689245      -1.83483688
H        1.90186260       2.13934337      -0.22132032
H        1.92514650       0.90988313      -1.36263713
O        0.13829302      -0.34237429       0.54598415
O        1.11174946      -1.20661848       2.73933883
O       -1.58882527       1.25139624      -0.82909179
O        1.48565461       1.25502896      -0.51289525
13
Properties=species:S:1:pos:R:3 ipi_comment="Step:        3100  Bead:       0 positions{ase}  cell{ase}" pbc="F F F"
H       -0.67236381       0.37248654      -0.08775402
H        0.82083261       1.19367055       0.84774310
H        0.70979505      -0.67749720       1.02761635
H        1.72073077      -1.87335992       1.72040074
H        0.85261459      -2.27088267       0.35716958
H       -2.40985022       0.43752235      -1.02960769
H       -1.29121163       0.00609567      -1.88113369
H        2.59660005       1.61231956       1.39417802
H        1.63527753       2.75554204       1.01157440
O       -0.17859812       0.67297718       0.94797144
O        0.89439569      -1.68779278       1.20583372
O       -1.48205576       0.32263850      -0.96029372
O        1.87952988       1.81976544       0.79608407
13
Properties=species:S:1:pos:R:3 ipi_comment="Step:        3700  Bead:       0 positions{ase}  cell{ase}" pbc="F F F"
H       -0.76854057       0.88187652      -0.50873992
H        0.80270357       0.54480128       0.29145199
H        0.85574788      -1.09827115       1.59921192
H        0.89870588      -0.80011477       3.33764778
H        1.85712211      -1.84237568       2.80860094
H       -2.34607624       1.59424234      -0.45308954
H       -1.83115621       0.67598769      -1.68838685
H        1.83083771       2.03348004       0.52210865
H        2.25020199       1.07771059      -0.59291959
O        0.18969258      -0.37639146       0.39057098
O        1.07094370      -1.32450846       2.54645838
O       -1.58032540       1.25926172      -0.91487938
O        1.45897381       1.47399986      -0.15577120
13
Properties=species:S:1:pos:R:3 ipi_comment="Step:        1580  Bead:       0 positions{ase}  cell{ase}" pbc="F F F"
H       -0.14320721       0.86237267      -0.13029176
H        0.31180761       0.99208049       1.71806827
H        1.18849899      -0.80774963      -0.06905923
H        2.11232585      -2.18089518      -0.14670979
H        0.82909162      -2.09616865      -1.13524713
H       -1.79842504       0.47905121      -1.22696203
H       -0.88655705       1.61103174      -1.88840952
H        1.11798477       1.55155218       3.31156000
H       -0.37707692       0.99991287       3.35546657
O        0.65046023       0.52764797       0.60663235
O        1.20385771      -1.79582363      -0.27675965
O       -0.89428875       0.93104682      -1.17257419
O        0.25455172       1.47383443       2.80531690
13
Properties=species:S:1:pos:R:3 ipi_comment="Step:        1520  Bead:       0 positions{ase}  cell{ase}" pbc="F F F"
H       -0.20554577       0.86616751      -0.10592817
H        0.33482182       0.94784626       1.82876717
H        1.14731366      -0.59176045      -0.22851518
H        1.92323630      -1.96382801       0.36938243
H        1.45879335      -1.90255612      -1.14682021
H       -1.76215257       0.65897720      -0.98671046
H       -0.89847422       1.78232707      -1.65665412
H        1.12744667       1.21784324       3.30655104
H       -0.41288447       0.85513380       3.41509018
O        0.68268788       0.62006169       0.54155916
O        1.15435297      -1.67301608      -0.21947908
O       -0.88807539       0.88494181      -1.27826073
O        0.24305297       1.27580170       2.85536701
13
Properties=species:S:1:pos:R:3 ipi_comment="Step:        1120  Bead:       0 positions{ase}  cell{ase}" pbc="F F F"
H       -0.12479007       1.12433451      -0.39720838
H        0.24393226       0.34711978       1.62154453
H        1.26954027      -0.69868813       0.18196523
H        1.99498990      -2.03167605      -0.63945406
H        2.39044049      -1.85305304       0.93083269
H       -2.00484292       1.97355093      -0.57809453
H       -1.02481003       2.09331976      -1.89827686
H        0.46313018       0.64384206       3.41041765
H       -0.89052762      -0.12727786       2.83862968
O        0.75103735       0.66619910       0.10945702
O        1.81787831      -1.55895548       0.19564420
O       -1.25819844       1.59151443      -1.10303716
O       -0.09378121       0.43414939       2.65458248
13
Properties=species:S:1:pos:R:3 ipi_comment="Step:        4860  Bead:       0 positions{ase}  cell{ase}" pbc="F F F"
H       -1.15410373       0.99449431       0.69034798
H        3.12714598      -1.42054763      -2.84515974
H        0.20979913       0.43088499       2.14769869
H        1.32211505       0.63991125       3.42967530
H        0.12636899      -0.39903453       3.93076356
H       -2.71117248       1.42311235      -0.07286113
H       -2.18660152      -0.10302243      -0.49076064
H        1.75756262      -0.72400446      -2.44422094
H        3.04306565      -0.75850876      -1.37446410
O        0.03629681       1.16717266       1.02212121
O        0.50090035       0.11389195       3.14851157
O       -2.14781652       0.66603614       0.17150353
O        2.75087218      -0.72673207      -2.32802170
13
Properties=species:S:1:pos:R:3 ipi_comment="Step:        1720  Bead:       0 positions{ase}  cell{ase}" pbc="F F F"
H       -0.12952808       0.42177890      -0.14688681
H        0.37091125       1.13470638       1.68670577
H        1.15415416      -1.08495297      -0.19249312
H        2.08773796      -2.20095645      -1.01778870
H        1.22715270      -2.64629659       0.29731266
H       -1.36361552       0.30159621      -1.33959457
H       -0.37248180       1.30123075      -1.67840027
H        0.97202525       2.49018693       2.91589164
H       -0.38816410       1.77010637       3.31412918
O        0.54108029       0.26913338       0.78020785
O        1.25017446      -2.05681360      -0.51450986
O       -0.92887983       1.06865062      -0.93626775
O        0.27636505       1.85093354       2.63000597
13
Properties=species:S:1:pos:R:3 ipi_comment="Step:        3460  Bead:       0 positions{ase}  cell{ase}" pbc="F F F"
H       -0.77007186       0.58056090      -0.31156736
H        0.95523063       0.82489302       0.40095130
H        0.48705557      -0.99185749       1.39259135
H        0.61316403      -2.58599200       2.03411840
H        0.96053600      -1.38362857       3.03116656
H       -2.47582464       0.52411927      -0.49055494
H       -1.71966248       0.54297288      -1.87612234
H        1.87368937       2.66089707       0.80909442
H        2.32972978       2.09198050      -0.59793061
O        0.20482114       0.05113225       0.57117558
O        0.86334021      -1.64532991       2.07568269
O       -1.60870638       0.80841800      -0.89454168
O        1.76146390       1.86875814       0.17228657
13
Properties=species:S:1:pos:R:3 ipi_comment="Step:        1660  Bead:       0 positions{ase}  cell{ase}" pbc="F F F"
H       -0.10031159       0.49125569      -0.28440108
H        0.34148915       1.03014170       1.88143448
H        0.89222504      -1.16341998      -0.00019226
H        2.20924948      -2.08282820      -0.62467215
H        0.85494718      -2.88897019      -0.47273284
H       -1.61004691       0.40544983      -1.41664748
H       -0.61232482       1.62918344      -1.75276426
H        0.81639066       2.48327740       2.79043549
H       -0.68711771       1.84296478       2.98674835
O        0.60329316       0.42790603       0.63928124
O        1.26341166      -1.99478994      -0.42689625
O       -0.93601389       1.00663477      -1.05558210
O        0.29963732       1.67579380       2.84873125
13
Properties=species:S:1:pos:R:3 ipi_comment="Step:        1880  Bead:       0 positions{ase}  cell{ase}" pbc="F F F"
H       -0.27373530       0.27963533       0.07887096
H        0.42814744       1.26634299       1.79569551
H        0.78082607      -1.28400015      -0.37108334
H        0.88377791      -2.70732620      -1.21587314
H        2.27850435      -2.02321497      -0.51500648
H       -1.64060403       1.44887321      -0.60093939
H       -0.34040683       1.62868006      -1.25065262
H        0.80156287       2.95115774       1.84444945
H       -0.48422549       2.46705664       2.61671947
O        0.28379467      -0.05748335       0.96423413
O        1.30072865      -2.14863426      -0.47108406
O       -0.83547338       0.98478636      -0.79253663
O        0.46052818       2.19321747       2.35060032
13
Properties=species:S:1:pos:R:3 ipi_comment="Step:         460  Bead:       0 positions{ase}  cell{ase}" pbc="F F F"
H       -0.41964767       1.24312734      -0.12313733
H       -0.38899284      -0.36293504       1.11897267
H        1.39223894      -0.62615192       0.17403759
H        3.06721192      -0.66989435       0.82469237
H        2.84774199      -1.32641703      -0.68657967
H       -1.42076354       2.46418956      -1.08170953