7
Properties=species:S:1:pos:R:3 ipi_comment="Step:           0  Bead:       0 positions{ase}  cell{ase}" pbc="F F F"
O       -0.24525292       0.92704947       0.70060630
H        0.50572486       1.32109162       1.06381283
H       -1.11256270       1.27455707       0.89327293
O        0.24664311      -0.93881000      -0.68037431
H       -0.04364253       0.07101824       0.05101683
H        1.06001929      -1.02699918      -1.19234993
H       -0.43160411      -1.45300416      -1.13687519
7
Properties=species:S:1:pos:R:3 ipi_comment="Step:          20  Bead:       0 positions{ase}  cell{ase}" pbc="F F F"
O       -0.25574497       0.94916778       0.71612079
H        0.47832233       1.34917053       1.16805439
H       -1.06465689       1.18507009       1.12546648
O        0.25903490      -0.94651036      -0.71148691
H       -0.10659258       0.01397405      -0.08317002
H        1.05631693      -1.04895521      -1.23470339
H       -0.41560774      -1.54143782      -1.04919657
7
Properties=species:S:1:pos:R:3 ipi_comment="Step:          40  Bead:       0 positions{ase}  cell{ase}" pbc="F F F"
O       -0.26656690       0.96694337       0.72418224
H        0.41731391       1.34053493       1.32111571
H       -1.08985412       1.00476650       1.22302824
O        0.25974431      -0.94466897      -0.74529915
H        0.09013146      -0.09781075      -0.03463531
H        1.08317822      -0.95205337      -1.25220549
H       -0.39248120      -1.64897692      -0.92213502
7
Properties=species:S:1:pos:R:3 ipi_comment="Step:          60  Bead:       0 positions{ase}  cell{ase}" pbc="F F F"
O       -0.28772504       0.96859094       0.71954716
H        0.37733064       1.31245696       1.42471357
H       -1.15307073       0.72933100       1.14811369
O        0.28771316      -0.92835763      -0.75297961
H       -0.00080683       0.12684800       0.14182303
H        1.02259740      -1.03637432      -1.35833853
H       -0.24586204      -1.77084552      -0.82567089
7
Properties=species:S:1:pos:R:3 ipi_comment="Step:          80  Bead:       0 positions{ase}  cell{ase}" pbc="F F F"
O       -0.31389413       0.96126447       0.71383199
H        0.33547857       1.22350062       1.48843365
H       -1.17821209       0.68113299       1.15879483
O        0.30490288      -0.91071270      -0.74820764
H        0.10349626       0.07737729      -0.06471660
H        1.03157347      -0.98073059      -1.39829479
H       -0.14962692      -1.80363898      -0.63860575
7
Properties=species:S:1:pos:R:3 ipi_comment="Step:         100  Bead:       0 positions{ase}  cell{ase}" pbc="F F F"
O       -0.32861587       0.94028032       0.69141660
H        0.38016827       1.05706120       1.45879406
H       -1.20875025       0.73197096       1.15027251
O        0.31250931      -0.88397077      -0.73951418
H        0.04490587      -0.02915504      -0.03479352
H        1.10427744      -0.85805748      -1.34007737
H       -0.06495770      -1.79556608      -0.47078969
7
Properties=species:S:1:pos:R:3 ipi_comment="Step:         120  Bead:       0 positions{ase}  cell{ase}" pbc="F F F"
O       -0.34308250       0.94088568       0.69148715
H        0.40431372       0.99213740       1.41833745
H       -1.26745472       0.94383756       1.10746267
O        0.31644474      -0.89439302      -0.73398447
H       -0.12720032       0.11113894       0.04191347
H        1.18272218      -0.87806423      -1.25970903
H        0.23041411      -1.90698217      -0.63348589
7
Properties=species:S:1:pos:R:3 ipi_comment="Step:         140  Bead:       0 positions{ase}  cell{ase}" pbc="F F F"
O       -0.34395669       0.96117812       0.69522347
H        0.26619143       1.03953740       1.48685423
H       -1.29116812       1.16097579       1.00756431
O        0.33010730      -0.93602005      -0.74231899
H       -0.11258932      -0.13958983       0.00362282
H        1.15074667      -0.55603728      -1.14884478
H        0.20663712      -1.90419552      -0.60169529
7
Properties=species:S:1:pos:R:3 ipi_comment="Step:         160  Bead:       0 positions{ase}  cell{ase}" pbc="F F F"
O       -0.35067744       0.96884958       0.68548469
H        0.07519437       1.08437193       1.54764392
H       -1.27863576       1.32309499       0.80868984
O        0.32470204      -0.94352835      -0.72738493
H       -0.04402199      -0.27450364       0.04376573
H        1.18010530      -0.63394320      -1.08946750
H        0.47964020      -1.90091900      -0.64559039
7
Properties=species:S:1:pos:R:3 ipi_comment="Step:         180  Bead:       0 positions{ase}  cell{ase}" pbc="F F F"
O       -0.34264033       0.95364958       0.68411644
H       -0.13009871       1.07015991       1.59639595
H       -1.18409897       1.41398108       0.47599601
O        0.33580958      -0.95382572      -0.72478517
H       -0.11119072      -0.11290393       0.06613409
H        1.08085195      -0.52527751      -1.11820470
H        0.45295424      -1.84316367      -0.37482612
7
Properties=species:S:1:pos:R:3 ipi_comment="Step:         200  Bead:       0 positions{ase}  cell{ase}" pbc="F F F"
O       -0.34385941       0.91732294       0.65758246
H       -0.37854688       0.95743543       1.58537493
H       -1.02122499       1.48392363       0.25504264
O        0.32228258      -0.91571673      -0.69107556
H        0.03957341      -0.01312741      -0.02564353
H        1.15118896      -0.77606449      -1.12469264
H        0.55147730      -1.67766084      -0.15847798
7
Properties=species:S:1:pos:R:3 ipi_comment="Step:         220  Bead:       0 positions{ase}  cell{ase}" pbc="F F F"
O       -0.34344414       0.91559315       0.64561913
H       -0.66781442       0.80508008       1.51318856
H       -0.90773350       1.53590740       0.19743523
O        0.34531050      -0.90724616      -0.66638226
H        0.10500459       0.00704268      -0.00576767
H        1.05355708      -0.83296878      -1.29490447
H        0.38736333      -1.64754472      -0.08039877
7
Properties=species:S:1:pos:R:3 ipi_comment="Step:         240  Bead:       0 positions{ase}  cell{ase}" pbc="F F F"
O       -0.35197182       0.96142432       0.65234065
H       -0.88610247       0.64942786       1.37156120
H       -0.83333503       1.57718448       0.11848013
O        0.36633089      -0.93440921      -0.64682681
H        0.03668060       0.07577331       0.04442119
H        1.02329450      -0.93402624      -1.34891478
H        0.43155484      -1.79714375      -0.27306335
7
Properties=species:S:1:pos:R:3 ipi_comment="Step:         260  Bead:       0 positions{ase}  cell{ase}" pbc="F F F"
O       -0.36031206       1.00490930       0.67423232
H       -1.06729540       0.67405153       1.26128262
H       -0.82380453       1.64991414       0.16035605
O        0.39131411      -0.98703927      -0.65920467
H        0.01406828       0.12226523       0.05704509
H        1.02828635      -0.85686399      -1.39249703
H        0.35667994      -1.87300036      -0.32470580
7
Properties=species:S:1:pos:R:3 ipi_comment="Step:         280  Bead:       0 positions{ase}  cell{ase}" pbc="F F F"
O       -0.38725689       1.01676527       0.68441565
H       -1.08844866       0.73089718       1.34337335
H       -0.68855044       1.74257502       0.12938769
O        0.40642393      -0.99492485      -0.66704211
H        0.01475247       0.08270278       0.05934858
H        1.06756196      -0.95202934      -1.39205870
H        0.39046480      -1.95079717      -0.41580409
7
Properties=species:S:1:pos:R:3 ipi_comment="Step:         300  Bead:       0 positions{ase}  cell{ase}" pbc="F F F"
O       -0.39566371       0.97296431       0.67241885
H       -1.08190589       0.89347359       1.41435216
H       -0.58861603       1.74349554       0.10390101
O        0.41267791      -0.97084953      -0.67086927
H       -0.09909872       0.13197677       0.12023386
H        1.12603481      -0.87848341      -1.32954386
H        0.37353597      -1.92402827      -0.33353814
7
Properties=species:S:1:pos:R:3 ipi_comment="Step:         320  Bead:       0 positions{ase}  cell{ase}" pbc="F F F"
O       -0.39709292       0.94713741       0.67177120
H       -1.12698272       0.91973748       1.36829047
H       -0.48098955       1.79502335       0.15481217
O        0.39829765      -0.93750856      -0.67063763
H       -0.03788543      -0.14242884      -0.03593843
H        1.22012847      -0.81302763      -1.17845592
H        0.40660758      -1.91213355      -0.32670024
7
Properties=species:S:1:pos:R:3 ipi_comment="Step:         340  Bead:       0 positions{ase}  cell{ase}" pbc="F F F"
O       -0.39975379       0.90866283       0.66940284
H       -1.18770845       0.90416263       1.23783252
H       -0.30260565       1.85683755       0.29330374
O        0.38661595      -0.92214464      -0.68484062
H        0.04994802      -0.06151654       0.07909018
H        1.23062248      -0.62960626      -1.07555188
H        0.41826771      -1.85589362      -0.28964568
7
Properties=species:S:1:pos:R:3 ipi_comment="Step:         360  Bead:       0 positions{ase}  cell{ase}" pbc="F F F"
O       -0.39953509       0.90180292       0.68517894
H       -1.21077645       0.93958074       1.17663446
H       -0.04070437       1.77989283       0.34601610
O        0.37338680      -0.91290454      -0.69814731
H       -0.10770333      -0.00972152       0.07230823
H        1.26897184      -0.72536880      -1.07971997
H        0.50523848      -1.80817792      -0.30940442
7
Properties=species:S:1:pos:R:3 ipi_comment="Step:         380  Bead:       0 positions{ase}  cell{ase}" pbc="F F F"
O       -0.37604851       0.92073569       0.72995192
H       -1.25324758       1.12311701       1.03125869
H       -0.00144310       1.81848120       0.53316581
O        0.36094895      -0.94246282      -0.72760878
H       -0.07348520      -0.06124193      -0.11688102
H        1.20092335      -0.73008128      -1.20349299
H        0.36691306      -1.80542131      -0.28124081
7
Properties=species:S:1:pos:R:3 ipi_comment="Step:         400  Bead:       0 positions{ase}  cell{ase}" pbc="F F F"
O       -0.36676458       0.95222382       0.76877257
H       -1.32409935       0.99268814       0.77594736
H        0.02862000       1.81412959       0.70532489
O        0.34637834      -0.95738032      -0.76416288
H        0.10346465      -0.04217136      -0.11867524
H        1.21401613      -0.94262877      -1.21245185
H        0.30156945      -1.74017331      -0.22331015
7
Properties=species:S:1:pos:R:3 ipi_comment="Step:         420  Bead:       0 positions{ase}  cell{ase}" pbc="F F F"
O       -0.35486434       0.92182436       0.77284957
H       -1.31345911       0.99651002       0.53872469
H       -0.06179419       1.79551539       0.92125298
O        0.34217043      -0.93234551      -0.77249784
H        0.13407652       0.11736022      -0.05244195
H        1.20149669      -1.05009947      -1.19313107
H        0.24115806      -1.69229398      -0.21998731
7
Properties=species:S:1:pos:R:3 ipi_comment="Step:         440  Bead:       0 positions{ase}  cell{ase}" pbc="F F F"
O       -0.34366004       0.87011931       0.74049927
H       -1.28807459       1.06708255       0.51272568
H        0.14364485       1.65144206       0.93822848
O        0.32570810      -0.88458211      -0.73895985
H        0.10884482       0.14677613       0.00687834
H        1.14904543      -0.95435238      -1.20852639
H        0.17147308      -1.68139417      -0.27373969
7
Properties=species:S:1:pos:R:3 ipi_comment="Step:         460  Bead:       0 positions{ase}  cell{ase}" pbc="F F F"
O       -0.34234330       0.85781455       0.72261623
H       -1.19920044       1.32459401       0.59790569
H        0.33295223       1.53815869       0.87037769
O        0.31307838      -0.86717123      -0.71236386
H        0.03210792      -0.08043972      -0.00488212
H        1.12420487      -0.85269033      -1.18797241
H        0.17442888      -1.78111297      -0.43815456
7
Properties=species:S:1:pos:R:3 ipi_comment="Step:         480  Bead:       0 positions{ase}  cell{ase}" pbc="F F F"
O       -0.33291538       0.87744492       0.74906569
H       -1.12936817       1.44137407       0.65592252
H        0.50115100       1.45486822       0.88091880
O        0.30672359      -0.90455328      -0.73320451
H       -0.20218235       0.07226559       0.04558295
H        1.09226554      -0.67097970      -1.20842587
H        0.15385054      -1.86726348      -0.62574734
7
Properties=species:S:1:pos:R:3 ipi_comment="Step:         500  Bead:       0 positions{ase}  cell{ase}" pbc="F F F"
O       -0.31865129       0.91128626       0.81354269
H       -1.04574234       1.52864713       0.74367895
H        0.56539679       1.45018342       0.96783102
O        0.28223339      -0.93042277      -0.78266204
H       -0.12981932      -0.01588998      -0.00126096
H        1.07901401      -0.75400191      -1.32510401
H        0.10917653      -1.90520336      -0.87528330
7
Properties=species:S:1:pos:R:3 ipi_comment="Step:         520  Bead:       0 positions{ase}  cell{ase}" pbc="F F F"
O       -0.28884209       0.89486991       0.85555246
H       -1.04513557       1.47889433       0.66978478
H        0.54882276       1.44388359       1.14529648
O        0.26905348      -0.91646151      -0.83094791
H       -0.02750564      -0.00702595       0.09463968
H        1.02394355      -0.77375776      -1.48950842
H       -0.18603986      -1.79929175      -0.81073645
7
Properties=species:S:1:pos:R:3 ipi_comment="Step:         540  Bead:       0 positions{ase}  cell{ase}" pbc="F F F"
O       -0.25295977       0.83270879       0.87023237
H       -0.93054955       1.44248311       0.46648016
H        0.42679752       1.45967040       1.29665679
O        0.24170498      -0.85064398      -0.83188560
H        0.12152977       0.16701306       0.03430649
H        0.85471776      -1.09641569      -1.62305319
H       -0.29385922      -1.68808302      -0.78303099
7
Properties=species:S:1:pos:R:3 ipi_comment="Step:         560  Bead:       0 positions{ase}  cell{ase}" pbc="F F F"
O       -0.23206839       0.79156399       0.85229820
H       -0.83556342       1.41829973       0.35007079
H        0.37955298       1.30098919       1.40051593
O        0.21432488      -0.80795161      -0.83770053
H        0.24420784       0.08074444       0.09258390
H        0.90579992      -1.06662066      -1.55415259
H       -0.41237198      -1.47330784      -0.52071265
7
Properties=species:S:1:pos:R:3 ipi_comment="Step:         580  Bead:       0 positions{ase}  cell{ase}" pbc="F F F"
O       -0.20533640       0.77733876       0.82851191
H       -0.68399468       1.52641241       0.32728889
H        0.26746194       1.17627950       1.53288088
O        0.17548329      -0.76942004      -0.82704682
H        0.19541083      -0.06954772       0.06739468
H        0.98987717      -1.15117057      -1.26977351
H       -0.29492593      -1.60765954      -0.68104479
7
Properties=species:S:1:pos:R:3 ipi_comment="Step:         600  Bead:       0 positions{ase}  cell{ase}" pbc="F F F"
O       -0.19907015       0.82293970       0.83615773
H       -0.51632380       1.66146480       0.38885752
H        0.24580498       0.96062702       1.64094933
O        0.15817408      -0.82664761      -0.86539673
H        0.02971941      -0.02624090       0.06992142
H        1.14367414      -0.84279818      -0.88074270
H       -0.25377140      -1.69420053      -0.75490343
7
Properties=species:S:1:pos:R:3 ipi_comment="Step:         620  Bead:       0 positions{ase}  cell{ase}" pbc="F F F"
O       -0.20906951       0.90090374       0.84961885
H       -0.31864613       1.85194691       0.63522254
H        0.27999557       0.80101775       1.65136472
O        0.16313682      -0.87902812      -0.88513095
H       -0.27303985      -0.22207402      -0.08897943
H        1.12414042      -0.95109412      -0.79763537
H       -0.08340527      -1.82700668      -0.83632341
7
Properties=species:S:1:pos:R:3 ipi_comment="Step:         640  Bead:       0 positions{ase}  cell{ase}" pbc="F F F"
O       -0.22258754       0.94663187       0.84245476
H       -0.21106570       1.90444563       0.83156419
H        0.26897375       0.74014453       1.65485289
O        0.17344718      -0.93652964      -0.88539440
H       -0.14149164      -0.10419239      -0.14691168
H        1.12179468      -0.87779417      -0.80843011
H       -0.25825417      -1.82294629      -0.84953619
7
Properties=species:S:1:pos:R:3 ipi_comment="Step:         660  Bead:       0 positions{ase}  cell{ase}" pbc="F F F"
O       -0.22353364       0.94277168       0.82405385
H       -0.27335289       1.86271894       0.63733232
H        0.14793706       0.74137011       1.72295023
O        0.18358916      -0.91455509      -0.85780638
H       -0.01215880      -0.10059870      -0.16729252
H        1.06647125      -1.20369904      -1.04333811
H       -0.29489702      -1.74764555      -0.61393091
7
Properties=species:S:1:pos:R:3 ipi_comment="Step:         680  Bead:       0 positions{ase}  cell{ase}" pbc="F F F"
O       -0.21691019       0.90129609       0.75647743
H       -0.25269116       1.80072649       0.45087056
H       -0.00517117       1.02780071       1.73549729
O        0.18081164      -0.90430566      -0.79628597
H        0.31065652       0.03741605       0.04883459
H        0.94003647      -1.27134286      -1.21361367
H       -0.41987354      -1.54683226      -0.38974651
7
Properties=species:S:1:pos:R:3 ipi_comment="Step:         700  Bead:       0 positions{ase}  cell{ase}" pbc="F F F"
O       -0.19926946       0.89378609       0.69901663
H       -0.25362460       1.65126756       0.12162353
H       -0.02995492       1.04818996       1.68247972
O        0.18511271      -0.87918726      -0.71351985
H        0.15605133       0.03607034       0.09422550
H        0.79680756      -1.43729626      -1.25584797
H       -0.44458323      -1.52994449      -0.41228525
7
Properties=species:S:1:pos:R:3 ipi_comment="Step:         720  Bead:       0 positions{ase}  cell{ase}" pbc="F F F"
O       -0.18811676       0.93448471       0.66124963
H       -0.33874873       1.76285630       0.14013310
H        0.08228423       1.24975352       1.54800589
O        0.16610661      -0.94645457      -0.66344148
H        0.23674883      -0.06016137       0.12956826
H        0.95610585      -1.24041916      -1.20338405
H       -0.58704463      -1.52204325      -0.57953408
7
Properties=species:S:1:pos:R:3 ipi_comment="Step:         740  Bead:       0 positions{ase}  cell{ase}" pbc="F F F"
O       -0.20129827       1.01611979       0.65809510
H       -0.41491448       1.80334383       0.06242211
H        0.28457966       1.24632255       1.44271759
O        0.17738968      -1.02374136      -0.61956997
H       -0.03335122       0.00901158      -0.07652958
H        1.00931841      -1.22193956      -1.14275365
H       -0.46615466      -1.71576849      -0.89732816
7
Properties=species:S:1:pos:R:3 ipi_comment="Step:         760  Bead:       0 positions{ase}  cell{ase}" pbc="F F F"
O       -0.23497868       1.07105383       0.62071438
H       -0.43636788       1.97607921       0.19624220
H        0.50303429       1.18459840       1.20017448
O        0.19597624      -1.09891665      -0.58274876
H       -0.10144888       0.06324992       0.07473281
H        1.10596236      -1.11732285      -0.98803402
H       -0.45213230      -1.66436519      -1.08570651
7
Properties=species:S:1:pos:R:3 ipi_comment="Step:         780  Bead:       0 positions{ase}  cell{ase}" pbc="F F F"
O       -0.25080991       1.07080509       0.60414299
H       -0.51013250       1.88271095       0.08233727
H        0.55873173       1.30419359       1.05870389
O        0.21274933      -1.11189414      -0.52951618
H       -0.10783684       0.17522482      -0.12793067
H        1.09411892      -1.19344120      -0.98625208
H       -0.43078301      -1.51652155      -1.21133681
7
Properties=species:S:1:pos:R:3 ipi_comment="Step:         800  Bead:       0 positions{ase}  cell{ase}" pbc="F F F"
O       -0.24686898       1.06041579       0.54226013
H       -0.59923134       1.76840665      -0.03848137
H        0.51707584       1.39774489       1.05384337
O        0.21094430      -1.08961085      -0.48403732
H        0.05700873       0.01717989       0.04537170
H        1.09427102      -1.33297094      -0.81816192
H       -0.49892701      -1.38697556      -1.16668544
7
Properties=species:S:1:pos:R:3 ipi_comment="Step:         820  Bead:       0 positions{ase}  cell{ase}" pbc="F F F"
O       -0.22702048       1.04182798       0.48182015
H       -0.56430653       1.59929523      -0.21253003
H        0.27857908       1.63613705       1.10788056
O        0.20898014      -1.06348748      -0.43591939
H        0.07565575      -0.05328155       0.06305428
H        1.02755543      -1.50962921      -0.61859160
H       -0.53114707      -1.32874132      -1.06835108
7
Properties=species:S:1:pos:R:3 ipi_comment="Step:         840  Bead:       0 positions{ase}  cell{ase}" pbc="F F F"
O       -0.23410770       1.06723881       0.43311139
H       -0.55870003       1.56159288      -0.29111181
H        0.08616606       1.67398115       1.16251531
O        0.21355151      -1.08175274      -0.39916634
H        0.24146229       0.04973305       0.09891933
H        1.01373652      -1.61679741      -0.49640961
H       -0.45639644      -1.43814403      -1.01268978
7
Properties=species:S:1:pos:R:3 ipi_comment="Step:         860  Bead:       0 positions{ase}  cell{ase}" pbc="F F F"
O       -0.25152435       1.11724984       0.39125164
H       -0.55395903       1.71073493      -0.28972834
H       -0.04394438       1.55833844       1.25855660
O        0.24754601      -1.12722507      -0.37012987
H        0.00498506      -0.01195193       0.06878773
H        1.11748792      -1.61026222      -0.47959383
H       -0.46142538      -1.48853193      -0.89326735
7
Properties=species:S:1:pos:R:3 ipi_comment="Step:         880  Bead:       0 positions{ase}  cell{ase}" pbc="F F F"
O       -0.28844672       1.14919804       0.34147310
H       -0.48121205       2.01406633      -0.08901449
H       -0.11250651       1.36443394       1.27359897
O        0.26641811      -1.16569226      -0.31911426
H        0.06391812      -0.01086273      -0.06000476
H        1.20580072      -1.46259852      -0.58717016
H       -0.32636179      -1.64324214      -0.89228955
7
Properties=species:S:1:pos:R:3 ipi_comment="Step:         900  Bead:       0 positions{ase}  cell{ase}" pbc="F F F"
O       -0.30461307       1.15608177       0.32189378
H       -0.35497222       2.10175503      -0.03394409
H       -0.19141441       1.09191697       1.25459382
O        0.28131674      -1.17553930      -0.28078586
H       -0.00136584      -0.04054725      -0.24813807
H        1.22296045      -1.21972770      -0.70878601
H       -0.30544803      -1.62456648      -0.91619140
7
Properties=species:S:1:pos:R:3 ipi_comment="Step:         920  Bead:       0 positions{ase}  cell{ase}" pbc="F F F"
O       -0.29937713       1.11397510       0.30510526
H       -0.07673209       2.07174167       0.03304752
H       -0.39138890       1.18420291       1.25458351
O        0.27873952      -1.13833038      -0.28446842
H       -0.07305567      -0.09475153      -0.03203647
H        1.19744668      -1.11357387      -0.71469681
H       -0.32870936      -1.66105131      -0.86844604
7
Properties=species:S:1:pos:R:3 ipi_comment="Step:         940  Bead:       0 positions{ase}  cell{ase}" pbc="F F F"
O       -0.28955482       1.08382291       0.33601504
H        0.22710143       1.79904895      -0.11646340
H       -0.62433888       1.28160382       1.23491092
O        0.25819279      -1.10830873      -0.30579518
H       -0.01272122       0.05316680      -0.01787436
H        1.19707931      -1.10959101      -0.62197713
H       -0.28934177      -1.63558886      -0.95824635
7
Properties=species:S:1:pos:R:3 ipi_comment="Step:         960  Bead:       0 positions{ase}  cell{ase}" pbc="F F F"
O       -0.29292425       1.07221773       0.37192678
H        0.34730951       1.67955813       0.02908816
H       -0.69041146       1.48325897       1.18663865
O        0.26882657      -1.08844501      -0.35759499
H       -0.13027943      -0.08207272       0.12577021
H        1.16925537      -1.38128831      -0.48620989
H       -0.31339507      -1.44189604      -1.08276167
7
Properties=species:S:1:pos:R:3 ipi_comment="Step:         980  Bead:       0 positions{ase}  cell{ase}" pbc="F F F"
O       -0.31077616       1.09578434       0.41391310
H        0.44020281       1.64316651       0.25763800
H       -0.80880887       1.45314541       1.21400868
O        0.27829953      -1.09500193      -0.42328016
H        0.09061079      -0.15259164       0.16237870
H        1.09031230      -1.55773100      -0.32487581
H       -0.29684731      -1.39840752      -1.16047529
7
Properties=species:S:1:pos:R:3 ipi_comment="Step:        1000  Bead:       0 positions{ase}  cell{ase}" pbc="F F F"
O       -0.30950136       1.12749043       0.43703957
H        0.41589550       1.73221148       0.54076166
H       -0.87827307       1.22770756       1.26323228
O        0.29611687      -1.11345349      -0.46158865
H       -0.06796809      -0.01204271       0.03775732
H        0.92260313      -1.78638657      -0.20423578
H       -0.17981856      -1.38428413      -1.24787183
7
Properties=species:S:1:pos:R:3 ipi_comment="Step:        1020  Bead:       0 positions{ase}  cell{ase}" pbc="F F F"
O       -0.29410631       1.13739334       0.45133405
H        0.44424683       1.72027228       0.72458279
H       -0.95538263       0.98319181       1.14724669
O        0.27631084      -1.11401783      -0.48906822
H        0.08682813       0.22860136       0.08357494
H        0.72992151      -1.84546911      -0.02288295
H       -0.02316382      -1.45761283      -1.33360376
7
Properties=species:S:1:pos:R:3 ipi_comment="Step:        1040  Bead:       0 positions{ase}  cell{ase}" pbc="F F F"
O       -0.25761711       1.14166461       0.45702536
H        0.33999027       1.76015030       0.96675341
H       -0.93465513       0.92845191       1.07475550
O        0.25507748      -1.10864928      -0.50534756
H        0.04422716       0.08335471      -0.06903974
H        0.48651930      -1.79888113       0.18304610
H        0.10422736      -1.49709561      -1.38854402
7
Properties=species:S:1:pos:R:3 ipi_comment="Step:        1060  Bead:       0 positions{ase}  cell{ase}" pbc="F F F"
O       -0.22969072       1.12200492       0.44667369
H        0.44216112       1.68830406       0.93097795
H       -0.98459022       1.02262080       0.97779755
O        0.23352958      -1.08281951      -0.48426274
H        0.04404641      -0.02240557      -0.14384306
H        0.25958171      -1.81698165       0.22635847
H        0.17787041      -1.49348924      -1.39467654
7
Properties=species:S:1:pos:R:3 ipi_comment="Step:        1080  Bead:       0 positions{ase}  cell{ase}" pbc="F F F"
O       -0.20183905       1.08477862       0.43065001
H        0.59288567       1.49186917       0.87119379
H       -0.98933051       1.30373186       0.93803418
O        0.21597850      -1.06578965      -0.46270803
H        0.02542025       0.05535182      -0.01613400
H        0.02541909      -1.87043949       0.13766881
H        0.12118376      -1.28190657      -1.42193704
7
Properties=species:S:1:pos:R:3 ipi_comment="Step:        1100  Bead:       0 positions{ase}  cell{ase}" pbc="F F F"
O       -0.17318069       1.08346841       0.41904984
H        0.64506806       1.42971300       0.85006775
H       -0.98152215       1.47442206       0.87500307
O        0.21916955      -1.06782306      -0.44810591
H       -0.18611192      -0.08729995       0.10382004
H       -0.16609823      -1.89056670       0.00932739
H       -0.04127196      -1.17459150      -1.37703952
7
Properties=species:S:1:pos:R:3 ipi_comment="Step:        1120  Bead:       0 positions{ase}  cell{ase}" pbc="F F F"
O       -0.16456002       1.09086871       0.42927052
H        0.61930319       1.40193541       0.88146965
H       -0.96324178       1.66645956       0.74474770
O        0.20610705      -1.09506764      -0.44167898
H       -0.02026672      -0.04382693       0.00853243
H       -0.22363602      -1.91301094      -0.08744635
H       -0.07159429      -1.04491139      -1.35035604
7
Properties=species:S:1:pos:R:3 ipi_comment="Step:        1140  Bead:       0 positions{ase}  cell{ase}" pbc="F F F"
O       -0.12877017       1.12187416       0.44417713
H        0.52332737       1.56966119       0.99563789
H       -1.05353410       1.56644177       0.55965018
O        0.18004121      -1.12473484      -0.46010625
H       -0.11582375      -0.04944084       0.11862761
H       -0.23994817      -1.86655562      -0.04361242
H        0.07220335      -1.17470153      -1.37747593
7
Properties=species:S:1:pos:R:3 ipi_comment="Step:        1160  Bead:       0 positions{ase}  cell{ase}" pbc="F F F"
O       -0.11044153       1.13052130       0.45272317
H        0.38033763       1.58107296       1.18076524
H       -1.05774884       1.42027152       0.51229959
O        0.14923010      -1.12105256      -0.46653706
H        0.12292211      -0.01776430      -0.01823970
H       -0.23773390      -1.84958704      -0.05662787
H        0.17656974      -1.28428098      -1.39894274
7
Properties=species:S:1:pos:R:3 ipi_comment="Step:        1180  Bead:       0 positions{ase}  cell{ase}" pbc="F F F"
O       -0.08243376       1.12001215       0.44623664
H        0.33669414       1.36706403       1.33000694
H       -1.04229021       1.26150695       0.44049698
O        0.12327890      -1.09535857      -0.47066719
H        0.07479615       0.04966864       0.01571943
H       -0.26520041      -1.77152198       0.00779091
H        0.24770530      -1.29801957      -1.40625194
7
Properties=species:S:1:pos:R:3 ipi_comment="Step:        1200  Bead:       0 positions{ase}  cell{ase}" pbc="F F F"
O       -0.06387450       1.10673505       0.44196953
H        0.25286160       1.07550232       1.41582867