7
# CELL(abcABC):  529.17722   529.17722   529.17722    90.00000    90.00000    90.00000  Step:           0  Bead:       0 forces{eV/ang}  cell{angstrom}
       O -1.26222e+00 -1.20685e+00 -9.98136e-01
       H  2.05290e+00  1.68008e+00  1.46051e+00
       H -7.77640e-01  5.47471e-01  3.47039e-01
       O  9.37648e-03 -3.24969e-01 -3.84180e-02
       H -7.55587e-02 -5.88536e-01 -5.27979e-01
       H  4.34582e-01  7.78954e-02 -1.37825e-01
       H -3.81441e-01 -1.85092e-01 -1.05191e-01
7
# CELL(abcABC):  529.17722   529.17722   529.17722    90.00000    90.00000    90.00000  Step:          20  Bead:       0 forces{eV/ang}  cell{angstrom}
       O  8.58299e-01 -1.32883e+00 -1.96057e+00
       H  9.93043e-01  5.88574e-01  6.70782e-01
       H -1.93907e+00  5.31517e-01  9.61188e-01
       O -6.48022e-01  3.56500e-01  6.71574e-01
       H  5.21978e-01  1.32621e-01  2.72747e-01
       H  8.29947e-01  2.11579e-01 -3.68167e-01
       H -6.16171e-01 -4.91964e-01 -2.47558e-01
7
# CELL(abcABC):  529.17722   529.17722   529.17722    90.00000    90.00000    90.00000  Step:          40  Bead:       0 forces{eV/ang}  cell{angstrom}
       O  8.88666e-01 -1.69006e-01 -2.96335e-01
       H  3.34462e-01 -5.43181e-03 -1.55829e-01
       H -9.90535e-01 -1.65365e-01  2.21653e-01
       O -2.58351e-01  6.45502e-01  6.17257e-01
       H -4.53282e-01  9.38098e-02  7.93426e-02
       H  4.47683e-01 -2.92118e-01 -4.08688e-01
       H  3.13570e-02 -1.07390e-01 -5.74009e-02
7
# CELL(abcABC):  529.17722   529.17722   529.17722    90.00000    90.00000    90.00000  Step:          60  Bead:       0 forces{eV/ang}  cell{angstrom}
       O  6.14802e-01 -8.51067e-02  2.51706e-01
       H -1.02769e+00 -7.88904e-01 -8.06016e-01
       H  2.43972e-01  4.10853e-01  3.38784e-01
       O -1.43275e+00 -4.72306e-01  7.43793e-01
       H  2.43945e-01  1.54466e-01 -1.15297e-01
       H  1.05474e+00  3.34583e-02 -4.83571e-01
       H  3.02982e-01  7.47540e-01  7.06018e-02
7
# CELL(abcABC):  529.17722   529.17722   529.17722    90.00000    90.00000    90.00000  Step:          80  Bead:       0 forces{eV/ang}  cell{angstrom}
       O  5.94766e-01  2.47458e-01  1.99508e+00
       H -1.14508e+00 -6.39464e-01 -1.67130e+00
       H  8.32482e-01  2.39875e-01 -7.18857e-01
       O -5.53771e-01 -1.03481e+00  2.34453e-01
       H -3.26397e-01 -1.81198e-01  3.54016e-01
       H  2.76968e-01  2.57446e-01 -5.15163e-02
       H  3.21029e-01  1.11069e+00 -1.41874e-01
7
# CELL(abcABC):  529.17722   529.17722   529.17722    90.00000    90.00000    90.00000  Step:         100  Bead:       0 forces{eV/ang}  cell{angstrom}
       O  9.13178e-01 -2.17441e-01  2.40194e+00
       H -1.96008e+00 -6.00929e-02 -1.49850e+00
       H  1.14629e+00  5.22574e-01 -6.19274e-01
       O -1.88094e-01 -1.68668e+00  2.43486e-01
       H -3.05306e-01  4.28720e-01  2.31227e-01
       H -7.06581e-01 -4.03480e-01  2.79369e-01
       H  1.10059e+00  1.41640e+00 -1.03825e+00
7
# CELL(abcABC):  529.17722   529.17722   529.17722    90.00000    90.00000    90.00000  Step:         120  Bead:       0 forces{eV/ang}  cell{angstrom}
       O  2.69307e-01  5.85043e-01  2.51968e+00
       H -2.20474e+00 -2.42937e-01 -1.56042e+00
       H  1.60920e+00  1.70853e-01 -7.26918e-01
       O  1.57151e+00 -2.35135e+00  3.96047e-01
       H  4.30509e-01 -5.99132e-01 -1.00807e-01
       H -1.30175e+00  4.14240e-01 -8.90698e-02
       H -3.74031e-01  2.02328e+00 -4.38510e-01
7
# CELL(abcABC):  529.17722   529.17722   529.17722    90.00000    90.00000    90.00000  Step:         140  Bead:       0 forces{eV/ang}  cell{angstrom}
       O -2.57829e-01 -1.50706e-01  1.85540e+00
       H -1.69058e+00 -2.02457e-01 -1.31105e+00
       H  2.03447e+00 -2.52787e-01 -8.13758e-01
       O -1.29620e-01  1.10807e-01  3.63682e-01
       H  5.12249e-02  8.34444e-02 -5.17295e-02
       H -6.31158e-01 -8.58883e-01 -6.56731e-02
       H  6.23491e-01  1.27058e+00  2.31252e-02
7
# CELL(abcABC):  529.17722   529.17722   529.17722    90.00000    90.00000    90.00000  Step:         160  Bead:       0 forces{eV/ang}  cell{angstrom}
       O -8.41625e-01  4.95599e-01  1.92963e+00
       H -7.16821e-01 -3.81779e-01 -1.26910e+00
       H  1.63255e+00 -6.07090e-01 -7.37593e-01
       O  5.78471e-01 -9.92136e-01 -7.47264e-01
       H -1.23369e-01  6.56419e-01  3.12876e-01
       H -2.05106e-01  2.36315e-01  1.20516e-01
       H -3.24099e-01  5.92673e-01  3.90936e-01
7
# CELL(abcABC):  529.17722   529.17722   529.17722    90.00000    90.00000    90.00000  Step:         180  Bead:       0 forces{eV/ang}  cell{angstrom}
       O -9.36589e-01  1.59422e-01 -1.14620e-01
       H -3.77562e-01 -1.68094e-01 -4.42203e-01
       H  1.26533e+00 -4.47433e-01  2.09806e-01
       O -1.31176e+00  7.78329e-01  7.01928e-01
       H  2.72039e-01 -7.90592e-02  6.77500e-03
       H  7.12424e-01 -4.19365e-01 -3.08409e-01
       H  3.76121e-01  1.76200e-01 -5.32769e-02
7
# CELL(abcABC):  529.17722   529.17722   529.17722    90.00000    90.00000    90.00000  Step:         200  Bead:       0 forces{eV/ang}  cell{angstrom}
       O -1.24631e+00  8.45738e-01 -1.35175e+00
       H  3.30433e-01  1.97929e-01  1.28168e+00
       H  8.91539e-01 -5.09261e-01  2.76248e-01
       O -1.58996e-01 -4.00353e-01 -2.90475e-01
       H -2.01410e-01 -3.35826e-01  1.77304e-01
       H  8.84689e-01  3.85276e-01 -4.49165e-01
       H -4.99942e-01 -1.83501e-01  3.56153e-01
7
# CELL(abcABC):  529.17722   529.17722   529.17722    90.00000    90.00000    90.00000  Step:         220  Bead:       0 forces{eV/ang}  cell{angstrom}
       O  1.75483e-01  2.55965e-01 -1.75700e+00
       H  1.74962e-01  1.13054e-01  2.49331e+00
       H -4.21580e-01  2.91316e-01 -3.21375e-01
       O -3.63293e-01  8.50702e-01 -6.38328e-01
       H -1.71714e-01  5.27675e-01 -3.54276e-03
       H  5.75197e-01 -3.56875e-01 -3.43056e-02
       H  3.09448e-02 -1.68184e+00  2.61242e-01
7
# CELL(abcABC):  529.17722   529.17722   529.17722    90.00000    90.00000    90.00000  Step:         240  Bead:       0 forces{eV/ang}  cell{angstrom}
       O  2.38279e+00 -4.68795e-01 -2.14466e+00
       H -7.43484e-01 -1.51214e-01  3.30679e+00
       H -1.63745e+00  1.12749e+00 -9.37143e-01
       O  5.00562e-01  1.19344e+00 -7.15297e-01
       H -2.16434e-01 -3.84922e-01 -1.92610e-01
       H  5.19058e-01  4.75492e-01 -3.71709e-01
       H -8.05044e-01 -1.79149e+00  1.05463e+00
7
# CELL(abcABC):  529.17722   529.17722   529.17722    90.00000    90.00000    90.00000  Step:         260  Bead:       0 forces{eV/ang}  cell{angstrom}
       O  2.71308e+00 -1.75910e+00 -1.91694e-01
       H -4.17977e-01 -5.10208e-01  2.11796e+00
       H -2.28848e+00  1.79084e+00 -2.16383e+00
       O -6.52164e-01  3.03239e+00 -1.92747e-01
       H  2.81392e-01  9.26248e-02 -3.49158e-01
       H  3.13000e-01 -3.83409e-01  2.55766e-02
       H  5.11514e-02 -2.26314e+00  7.53896e-01
7
# CELL(abcABC):  529.17722   529.17722   529.17722    90.00000    90.00000    90.00000  Step:         280  Bead:       0 forces{eV/ang}  cell{angstrom}
       O  2.17394e+00 -2.06293e+00  3.54334e-01
       H -2.87392e-01  1.01523e-01  4.31750e-01
       H -1.81855e+00  1.36986e+00 -1.12475e+00
       O -1.94676e-01  3.64226e-01 -5.00357e-01
       H -4.12315e-01  4.12477e-01  6.81005e-01
       H  1.21698e+00  5.13451e-01 -4.68447e-01
       H -6.77984e-01 -6.98608e-01  6.26461e-01
7
# CELL(abcABC):  529.17722   529.17722   529.17722    90.00000    90.00000    90.00000  Step:         300  Bead:       0 forces{eV/ang}  cell{angstrom}
       O  8.96921e-01 -1.71652e+00  1.08552e+00
       H  2.44283e-01  3.56085e-02 -3.07759e-01
       H -1.07836e+00  9.93961e-01 -1.02774e+00
       O -1.92011e+00  6.11734e-01  8.34932e-01
       H  3.17295e-01  4.49964e-02 -2.29476e-01
       H  1.19772e+00 -1.81969e-01 -2.08832e-01
       H  3.42248e-01  2.12189e-01 -1.46637e-01
7
# CELL(abcABC):  529.17722   529.17722   529.17722    90.00000    90.00000    90.00000  Step:         320  Bead:       0 forces{eV/ang}  cell{angstrom}
       O  3.44971e-01 -7.24121e-01  7.91354e-01
       H  1.15233e-01  2.69622e-01 -9.66571e-01
       H -4.34785e-01  3.90548e-01  3.47154e-03
       O -2.82544e-01 -1.94248e+00  7.41138e-01
       H  1.10503e-01 -9.86545e-02  1.45581e-01
       H  7.24855e-01  7.02165e-01 -3.69388e-01
       H -5.78232e-01  1.40292e+00 -3.45585e-01
7
# CELL(abcABC):  529.17722   529.17722   529.17722    90.00000    90.00000    90.00000  Step:         340  Bead:       0 forces{eV/ang}  cell{angstrom}
       O -8.61785e-01  1.94500e+00 -1.66143e-01
       H  2.11117e-01 -2.01773e-01 -1.96534e-01
       H  6.67165e-01 -1.48327e+00  6.08185e-01
       O -8.10573e-01 -6.32636e-01  4.81541e-01
       H -2.74631e-01  2.15982e-01 -1.14171e-01
       H  3.18814e-03 -7.16757e-01  1.68335e-01
       H  1.06552e+00  8.73455e-01 -7.81213e-01
7
# CELL(abcABC):  529.17722   529.17722   529.17722    90.00000    90.00000    90.00000  Step:         360  Bead:       0 forces{eV/ang}  cell{angstrom}
       O  3.47231e-01  1.73981e+00 -1.61024e+00
       H -4.58596e-02  1.23262e-02  1.27438e-01
       H -1.33992e-01 -1.62646e+00  1.35312e+00
       O  1.18158e+00 -1.60829e+00 -9.63588e-01
       H -2.03852e-01  4.90519e-02  1.09597e-01
       H -1.07403e+00  5.23157e-01  8.62612e-01
       H -7.10756e-02  9.10399e-01  1.21054e-01
7
# CELL(abcABC):  529.17722   529.17722   529.17722    90.00000    90.00000    90.00000  Step:         380  Bead:       0 forces{eV/ang}  cell{angstrom}
       O  1.53798e-01  2.28710e+00 -8.80108e-01
       H -6.85408e-03 -2.69065e-01  3.18858e-01
       H -3.41843e-01 -1.86538e+00  6.48232e-01
       O  3.91064e-01 -3.21303e-02 -1.85881e-01
       H  4.90359e-01 -3.90209e-01 -5.00192e-01
       H -1.29286e+00 -5.07355e-01  9.76189e-01
       H  6.06332e-01  7.77037e-01 -3.77097e-01
7
# CELL(abcABC):  529.17722   529.17722   529.17722    90.00000    90.00000    90.00000  Step:         400  Bead:       0 forces{eV/ang}  cell{angstrom}
       O  4.79002e-01 -3.92809e-01 -8.08730e-01
       H  8.52371e-02  2.47584e-01 -2.20841e-01
       H -1.93087e-01 -8.52604e-01  2.72381e-01
       O  7.68290e-01  7.39434e-01 -4.09394e-01
       H -1.11929e-01  1.05871e-01  3.53018e-01
       H -7.93367e-01  1.41801e-01  5.97744e-01
       H -2.34146e-01  1.07231e-02  2.15823e-01
7
# CELL(abcABC):  529.17722   529.17722   529.17722    90.00000    90.00000    90.00000  Step:         420  Bead:       0 forces{eV/ang}  cell{angstrom}
       O  4.95373e-01 -9.96468e-01  6.92815e-01
       H -3.82943e-01  3.29989e-01 -5.75489e-01
       H  1.35881e-01  1.91543e-01 -3.51751e-01
       O  3.19529e-01  1.42450e+00  7.96329e-02
       H -1.47304e-01 -6.82505e-02  8.54812e-02
       H -1.25293e-01 -7.30753e-02  6.20454e-02
       H -2.95243e-01 -8.08243e-01  7.26574e-03
7
# CELL(abcABC):  529.17722   529.17722   529.17722    90.00000    90.00000    90.00000  Step:         440  Bead:       0 forces{eV/ang}  cell{angstrom}
       O -9.04229e-01 -1.20663e+00  6.33177e-02
       H -8.42392e-02  4.86038e-01 -6.73420e-03
       H  8.49518e-01  1.09013e+00  1.96343e-01
       O -7.49952e-02  1.25102e+00 -6.34323e-02
       H  2.33852e-01  4.28041e-02  1.89737e-01
       H  1.05261e+00  1.99355e-01 -6.37565e-01
       H -1.07252e+00 -1.86270e+00  2.58335e-01
7
# CELL(abcABC):  529.17722   529.17722   529.17722    90.00000    90.00000    90.00000  Step:         460  Bead:       0 forces{eV/ang}  cell{angstrom}
       O -1.01245e+00 -2.13742e-01  8.67619e-01
       H -3.08264e-01 -1.76821e-01 -7.14040e-02
       H  1.12867e+00  1.40466e+00 -1.62256e-01
       O -1.78816e+00  9.94628e-01  9.85796e-01
       H  1.01575e-01 -4.96061e-01 -2.64829e-01
       H  2.27630e+00 -2.39597e-01 -1.25794e+00
       H -3.97671e-01 -1.27306e+00 -9.69873e-02
7
# CELL(abcABC):  529.17722   529.17722   529.17722    90.00000    90.00000    90.00000  Step:         480  Bead:       0 forces{eV/ang}  cell{angstrom}
       O  1.52341e-01 -4.64699e-01 -7.15436e-01
       H -2.14383e-01 -4.94060e-02  7.37725e-01
       H  8.68533e-02  1.03964e-01  8.13635e-02
       O -2.33975e+00 -1.54241e-01  1.22767e+00
       H -4.04904e-02  4.91356e-01 -2.98260e-01
       H  2.72533e+00  3.41223e-01 -1.24801e+00
       H -3.69906e-01 -2.68198e-01  2.14951e-01
7
# CELL(abcABC):  529.17722   529.17722   529.17722    90.00000    90.00000    90.00000  Step:         500  Bead:       0 forces{eV/ang}  cell{angstrom}
       O  1.43930e+00  5.11204e-01 -1.98348e+00
       H -1.09875e+00 -2.94069e-01  1.62141e+00
       H -3.22055e-01 -8.34252e-01 -1.15697e-01
       O -1.77496e+00  7.48767e-01  1.21937e+00
       H  2.14178e-01 -1.32620e-01 -7.38048e-02
       H  1.35934e+00 -1.86474e-01 -7.21256e-01
       H  1.82942e-01  1.87445e-01  5.34550e-02
7
# CELL(abcABC):  529.17722   529.17722   529.17722    90.00000    90.00000    90.00000  Step:         520  Bead:       0 forces{eV/ang}  cell{angstrom}
       O  1.46380e+00  1.63150e-01 -1.66363e+00
       H -1.14703e+00  3.60514e-02  1.11853e+00
       H -2.68958e-01 -5.15858e-01  1.37361e-01
       O  6.39780e-01 -4.26690e-01 -7.77128e-01
       H  5.81622e-02  3.78356e-01  5.74212e-01
       H -9.33004e-01  1.27601e-01  5.81748e-01
       H  1.87246e-01  2.37390e-01  2.89069e-02
7
# CELL(abcABC):  529.17722   529.17722   529.17722    90.00000    90.00000    90.00000  Step:         540  Bead:       0 forces{eV/ang}  cell{angstrom}
       O -3.25228e-01 -5.68265e-02  2.25703e-01
       H  3.47397e-01 -5.13026e-01 -2.47734e-01
       H  4.69992e-01  1.24306e-01 -3.25180e-01
       O  1.16349e+00 -5.35676e-01 -4.82544e-01
       H -4.63476e-01 -6.02971e-02 -2.83489e-01
       H -1.29721e+00  8.67243e-01  1.12016e+00
       H  1.05040e-01  1.74277e-01 -6.91625e-03
7
# CELL(abcABC):  529.17722   529.17722   529.17722    90.00000    90.00000    90.00000  Step:         560  Bead:       0 forces{eV/ang}  cell{angstrom}
       O -1.32364e+00 -2.49852e+00  6.48719e-01
       H  1.43723e+00  8.00575e-01 -3.29506e-01
       H -1.07046e-01  1.66381e+00 -3.81094e-01
       O  2.18570e+00 -3.40170e-01 -5.94677e-01
       H  1.13466e-01  1.34666e-01 -8.71312e-02
       H -2.14480e+00  9.42146e-01  8.95720e-01
       H -1.60910e-01 -7.02505e-01 -1.52031e-01
7
# CELL(abcABC):  529.17722   529.17722   529.17722    90.00000    90.00000    90.00000  Step:         580  Bead:       0 forces{eV/ang}  cell{angstrom}
       O -2.82273e+00 -3.68293e-03  9.96987e-01
       H  1.91443e+00 -3.84821e-01  2.50407e-03
       H  6.87341e-01  1.08650e+00 -4.80286e-01
       O  2.96102e+00 -1.31334e+00 -7.01051e-01
       H -1.57934e-01 -2.30311e-01  1.81276e-01
       H -2.18768e+00  8.00973e-01 -1.02459e-01
       H -3.94446e-01  4.46776e-02  1.03029e-01
7
# CELL(abcABC):  529.17722   529.17722   529.17722    90.00000    90.00000    90.00000  Step:         600  Bead:       0 forces{eV/ang}  cell{angstrom}
       O -1.46643e+00 -4.04366e-01  7.75092e-01
       H  1.35992e+00  5.93000e-01 -6.61039e-01
       H -4.95528e-01 -1.76248e-01  2.11876e-01
       O  2.02782e+00  8.33568e-02  3.23056e-01
       H  6.51254e-01  1.29695e-01 -2.71036e-01
       H -2.39905e+00 -3.71703e-01 -4.76458e-01
       H  3.22016e-01  1.46265e-01  9.85081e-02
7
# CELL(abcABC):  529.17722   529.17722   529.17722    90.00000    90.00000    90.00000  Step:         620  Bead:       0 forces{eV/ang}  cell{angstrom}
       O  6.82535e-01  1.77257e+00 -4.99073e-01
       H -3.05282e-02 -6.22104e-01 -3.62542e-01
       H -5.98386e-01 -1.52938e+00  3.49339e-01
       O  1.86298e+00 -8.13702e-01  3.07649e-01
       H  7.61334e-02 -2.37373e-01 -1.60234e-02
       H -1.78321e+00  5.01928e-01 -1.11897e-01
       H -2.09521e-01  9.28059e-01  3.32547e-01
7
# CELL(abcABC):  529.17722   529.17722   529.17722    90.00000    90.00000    90.00000  Step:         640  Bead:       0 forces{eV/ang}  cell{angstrom}
       O  1.37744e+00  8.39846e-01 -1.56362e+00
       H  7.33391e-02  1.94041e-01  5.12446e-02
       H -1.30465e+00 -1.40688e+00  1.19271e+00
       O -3.58655e-01 -8.71201e-01  2.28580e-01
       H  7.64370e-02  5.37819e-01  4.88636e-02
       H -1.14195e+00 -1.82915e-01  1.82495e-01
       H  1.27804e+00  8.89292e-01 -1.40277e-01
7
# CELL(abcABC):  529.17722   529.17722   529.17722    90.00000    90.00000    90.00000  Step:         660  Bead:       0 forces{eV/ang}  cell{angstrom}
       O  4.86636e-01  2.19464e+00  8.01988e-01
       H  1.17529e-01 -6.03972e-01 -5.03581e-01
       H -4.32072e-01 -1.47941e+00 -2.35875e-01
       O -1.77789e+00 -1.25055e+00  1.11608e-01
       H -2.10545e-01 -2.68003e-02 -7.66997e-02
       H  9.17323e-01 -8.83950e-02 -9.19185e-02
       H  8.99019e-01  1.25450e+00 -5.52140e-03
7
# CELL(abcABC):  529.17722   529.17722   529.17722    90.00000    90.00000    90.00000  Step:         680  Bead:       0 forces{eV/ang}  cell{angstrom}
       O -6.46870e-01 -1.65715e-01  6.76300e-01
       H  2.70404e-01  1.15312e+00  1.22770e-01
       H -8.21727e-02 -1.16313e-01  4.90174e-01
       O -2.28084e+00  6.34543e-01  9.15274e-01
       H  3.11802e-01 -5.81769e-01 -1.06528e+00
       H  1.94658e+00 -1.06767e+00 -9.26065e-01
       H  4.81097e-01  1.43812e-01 -2.13173e-01
7
# CELL(abcABC):  529.17722   529.17722   529.17722    90.00000    90.00000    90.00000  Step:         700  Bead:       0 forces{eV/ang}  cell{angstrom}
       O -6.28040e-01 -2.35395e-01  1.73089e+00
       H  2.65581e-01 -1.22254e-01 -1.40583e+00
       H  3.41385e-01  4.67324e-01 -6.40887e-01
       O -7.13687e-02  8.86422e-01 -1.54308e-02
       H  9.80639e-02 -3.11918e-01  6.53739e-01
       H  9.23665e-01 -7.07654e-02 -4.06679e-01
       H -9.29286e-01 -6.13414e-01  8.41970e-02
7
# CELL(abcABC):  529.17722   529.17722   529.17722    90.00000    90.00000    90.00000  Step:         720  Bead:       0 forces{eV/ang}  cell{angstrom}
       O -6.60064e-01 -2.99227e+00 -7.29133e-02
       H  2.58056e-01  8.32896e-01 -4.36136e-01
       H  5.07269e-01  1.46789e+00  1.58500e-01
       O  1.25223e+00  2.29041e+00  1.04250e+00
       H -3.74032e-02  6.56891e-02  1.30446e-01
       H  1.43676e-01 -2.87757e-01 -3.45089e-01
       H -1.46376e+00 -1.37686e+00 -4.77306e-01
7
# CELL(abcABC):  529.17722   529.17722   529.17722    90.00000    90.00000    90.00000  Step:         740  Bead:       0 forces{eV/ang}  cell{angstrom}
       O -8.58442e-01 -8.31847e-01  8.44035e-01
       H -7.94913e-02 -5.26763e-01  4.08793e-02
       H  9.03732e-01  1.39455e+00 -8.99080e-01
       O  9.91355e-01  4.57866e-01 -3.15552e-01
       H -2.83629e-02 -4.90134e-01 -3.09267e-01
       H  3.06257e-01  4.46926e-01  4.58102e-01
       H -1.23505e+00 -4.50598e-01  1.80882e-01
7
# CELL(abcABC):  529.17722   529.17722   529.17722    90.00000    90.00000    90.00000  Step:         760  Bead:       0 forces{eV/ang}  cell{angstrom}
       O -5.70777e-01 -2.23652e+00 -1.45246e+00
       H  2.65361e-01  3.02079e-01  9.06682e-01
       H  5.16704e-01  1.00314e+00  1.00992e-01
       O  6.11856e-01  1.12495e+00  5.83222e-01
       H -6.43014e-02  2.34414e-01 -2.26256e-01
       H -7.17413e-01 -3.47586e-01  3.18276e-01
       H -4.14298e-02 -8.04700e-02 -2.30459e-01
7
# CELL(abcABC):  529.17722   529.17722   529.17722    90.00000    90.00000    90.00000  Step:         780  Bead:       0 forces{eV/ang}  cell{angstrom}
       O  2.14478e-01  4.62628e-01 -1.03892e+00
       H -1.99565e-01 -4.89783e-01  1.77004e+00
       H -8.62639e-02  1.37860e-01 -7.98010e-01
       O  1.45512e-01 -1.19182e+00 -1.49624e+00
       H -8.68725e-02  5.55072e-01  3.34324e-01
       H -6.62198e-01 -9.03680e-02  7.01711e-01
       H  6.74909e-01  6.16411e-01  5.27092e-01
7
# CELL(abcABC):  529.17722   529.17722   529.17722    90.00000    90.00000    90.00000  Step:         800  Bead:       0 forces{eV/ang}  cell{angstrom}
       O -7.39332e-01  9.46539e-01 -2.21068e+00
       H  5.95678e-01  4.02252e-01  2.11982e+00
       H -3.57192e-02 -3.44949e-01  7.43192e-01
       O -1.42641e+00 -1.02721e+00 -1.21144e+00
       H  1.52847e-01 -5.12918e-01 -2.51284e-01
       H -2.89501e-01 -1.15783e-01  1.41917e-01
       H  1.74244e+00  6.52073e-01  6.68480e-01
7
# CELL(abcABC):  529.17722   529.17722   529.17722    90.00000    90.00000    90.00000  Step:         820  Bead:       0 forces{eV/ang}  cell{angstrom}
       O  2.48723e-02  1.86653e+00 -3.01452e-01
       H  1.37652e-01 -3.82012e-01  8.66425e-01
       H -1.91424e-01 -1.18644e+00 -4.51265e-01
       O -2.67721e+00 -1.05813e+00 -6.44017e-01
       H  7.65404e-02 -5.59217e-02  2.22371e-01
       H  1.03665e+00  1.78541e-02 -5.90550e-01
       H  1.59292e+00  7.98124e-01  8.98488e-01
7
# CELL(abcABC):  529.17722   529.17722   529.17722    90.00000    90.00000    90.00000  Step:         840  Bead:       0 forces{eV/ang}  cell{angstrom}
       O  3.46789e-01 -7.40728e-02  3.14568e-01
       H -2.85974e-01  4.58611e-01 -7.13249e-01
       H  1.34449e-01 -3.70204e-01  2.61292e-01
       O -1.24129e+00 -1.08177e+00 -3.26637e-01
       H -4.76879e-01  7.96298e-01  5.98769e-01
       H -2.20710e-02 -2.34805e-01 -3.38562e-01
       H  1.54497e+00  5.05945e-01  2.03818e-01
7
# CELL(abcABC):  529.17722   529.17722   529.17722    90.00000    90.00000    90.00000  Step:         860  Bead:       0 forces{eV/ang}  cell{angstrom}
       O  6.31250e-01 -1.83085e-01  2.63717e+00
       H -5.88043e-01 -3.19687e-01 -1.87352e+00
       H  6.73461e-02 -4.28138e-02 -5.05509e-01
       O -3.54343e-01 -3.83048e-01 -5.83530e-01
       H  2.17150e-01 -1.55487e-02 -5.88406e-01
       H -6.94665e-01  5.30709e-01  6.39946e-01
       H  7.21306e-01  4.13474e-01  2.73855e-01
7
# CELL(abcABC):  529.17722   529.17722   529.17722    90.00000    90.00000    90.00000  Step:         880  Bead:       0 forces{eV/ang}  cell{angstrom}
       O  2.61586e-01 -2.07753e-01  8.66681e-01
       H -1.92453e-01 -8.45944e-01 -1.70036e+00
       H -3.60750e-02  6.34635e-01  9.08502e-02
       O  1.89702e+00  9.08673e-01 -1.10076e+00
       H -1.33122e-01 -3.66836e-01  5.32127e-01
       H -1.32296e+00 -5.50952e-02  1.28566e+00
       H -4.73990e-01 -6.76790e-02  2.58079e-02
7
# CELL(abcABC):  529.17722   529.17722   529.17722    90.00000    90.00000    90.00000  Step:         900  Bead:       0 forces{eV/ang}  cell{angstrom}
       O  2.02382e-01  2.45433e-01  4.53212e-01
       H -2.12362e-01 -6.06655e-01 -9.01292e-01
       H  4.11553e-02 -5.05628e-01  5.73974e-01
       O  2.14492e+00  1.22725e+00 -7.67536e-01
       H  2.12759e-01  3.05735e-01 -8.93143e-01
       H -1.69205e+00 -1.40465e-01  1.74736e+00
       H -6.96799e-01 -5.25667e-01 -2.12573e-01
7
# CELL(abcABC):  529.17722   529.17722   529.17722    90.00000    90.00000    90.00000  Step:         920  Bead:       0 forces{eV/ang}  cell{angstrom}
       O -5.77752e-01  1.23029e+00 -1.31126e+00
       H  1.76675e-01  1.31427e-02  2.17609e-01
       H  1.51524e-01 -7.65849e-01  9.69641e-01
       O  1.57107e+00 -3.18879e-01 -1.83650e+00
       H -2.16682e-01  3.29721e-01  7.08596e-01
       H -9.76186e-01 -5.29962e-01  1.29896e+00
       H -1.28654e-01  4.15340e-02 -4.70461e-02
7
# CELL(abcABC):  529.17722   529.17722   529.17722    90.00000    90.00000    90.00000  Step:         940  Bead:       0 forces{eV/ang}  cell{angstrom}
       O -1.32303e+00  2.48250e+00 -3.67178e-02
       H  5.18437e-01  4.22893e-01  8.72384e-01
       H  4.23604e-01 -1.08459e+00  3.46581e-01
       O  7.54454e-02 -8.79540e-01 -1.57074e+00
       H  3.48685e-01 -1.12940e+00 -8.93258e-01
       H -4.32377e-01  6.61907e-02  9.31467e-01
       H  3.89237e-01  1.21951e-01  3.50279e-01
7
# CELL(abcABC):  529.17722   529.17722   529.17722    90.00000    90.00000    90.00000  Step:         960  Bead:       0 forces{eV/ang}  cell{angstrom}
       O -4.08634e-01  6.76549e-01 -1.75125e-01
       H  4.25669e-01  2.26858e-01  7.31452e-01
       H  5.36193e-02 -4.83892e-01 -2.09308e-01
       O -8.46995e-01 -1.10359e+00  3.36152e-02
       H -1.77489e-01  7.86364e-01  2.04522e-01
       H  3.75038e-01 -9.97399e-02 -5.62196e-01
       H  5.78792e-01 -2.54748e-03 -2.29608e-02
7
# CELL(abcABC):  529.17722   529.17722   529.17722    90.00000    90.00000    90.00000  Step:         980  Bead:       0 forces{eV/ang}  cell{angstrom}
       O -5.07018e-01 -5.83956e-01 -1.18970e+00
       H  2.54757e-01  3.39988e-01  2.80277e-01
       H  3.57043e-01 -2.36904e-01  3.28114e-01
       O -2.17660e+00  1.75325e-01  7.06027e-01
       H  9.51585e-02 -1.37121e-01  5.63704e-01
       H  1.76811e+00  2.33511e-02 -1.10475e+00
       H  2.08556e-01  4.19317e-01  4.16328e-01
7
# CELL(abcABC):  529.17722   529.17722   529.17722    90.00000    90.00000    90.00000  Step:        1000  Bead:       0 forces{eV/ang}  cell{angstrom}
       O  1.65689e-01 -3.31508e-01  3.30098e-01
       H  1.58798e-02 -2.52394e-01 -5.14987e-02
       H  2.95053e-03 -3.59517e-01 -2.03546e-01
       O -1.80493e+00  1.01743e+00  1.81212e+00
       H  2.96240e-02  3.30104e-01 -7.28243e-01
       H  1.61499e+00 -2.65022e-01 -1.02489e+00
       H -2.41987e-02 -1.39091e-01 -1.34038e-01
7
# CELL(abcABC):  529.17722   529.17722   529.17722    90.00000    90.00000    90.00000  Step:        1020  Bead:       0 forces{eV/ang}  cell{angstrom}
       O -2.97764e-01 -6.19096e-01 -3.90681e-01
       H -9.91325e-02 -1.37778e-01 -4.43937e-01
       H  2.56766e-02  6.95218e-01  2.99427e-01
       O -7.48464e-01  5.19248e-01  6.75810e-01
       H  2.13288e-01 -3.98485e-01  3.16602e-01
       H  1.24378e+00 -1.32362e-01 -5.76221e-01
       H -3.37388e-01  7.32542e-02  1.19000e-01
7
# CELL(abcABC):  529.17722   529.17722   529.17722    90.00000    90.00000    90.00000  Step:        1040  Bead:       0 forces{eV/ang}  cell{angstrom}
       O  1.32867e+00  3.49976e-01  2.04160e-01
       H -3.54117e-02 -5.08010e-01  6.37025e-01
       H -9.91888e-01  9.39257e-02 -7.73920e-01
       O  8.72842e-02  3.01939e-01  3.03010e-01
       H -6.36841e-01 -1.24831e-01 -2.31342e-01
       H  1.84125e-01 -2.95554e-01 -2.30039e-01
       H  6.40591e-02  1.82554e-01  9.11042e-02
7
# CELL(abcABC):  529.17722   529.17722   529.17722    90.00000    90.00000    90.00000  Step:        1060  Bead:       0 forces{eV/ang}  cell{angstrom}
       O  4.95549e-01 -2.53928e+00  1.25082e+00
       H -1.68102e-01  4.20115e-01 -1.79922e-01
       H -6.89817e-01  1.86206e+00 -1.24080e+00
       O -1.21940e-01 -1.07449e+00 -4.24217e-01
       H  8.92313e-01  7.51811e-01  2.14665e-01
       H -4.09073e-01  5.48981e-01  3.66489e-01
       H  1.06924e-03  3.07946e-02  1.29646e-02
7
# CELL(abcABC):  529.17722   529.17722   529.17722    90.00000    90.00000    90.00000  Step:        1080  Bead:       0 forces{eV/ang}  cell{angstrom}
       O  1.32563e+00  2.94027e-01  1.14334e+00
       H  2.17986e-02 -2.52795e-01  4.85445e-01
       H -1.07094e+00  7.37342e-01 -1.08303e+00
       O  1.37869e+00 -4.30067e-01 -3.78033e-01
       H -4.40037e-01 -6.40095e-01 -3.40729e-01
       H -1.07760e+00  4.58411e-01  2.31475e-01
       H -1.37532e-01 -1.66823e-01 -5.84598e-02
7
# CELL(abcABC):  529.17722   529.17722   529.17722    90.00000    90.00000    90.00000  Step:        1100  Bead:       0 forces{eV/ang}  cell{angstrom}
       O  3.81755e-01 -8.39206e-01  1.16055e-01
       H -2.60175e-01  7.53616e-02 -2.99193e-01
       H -1.63565e-01  8.07847e-01 -1.25502e-01
       O  1.70583e+00 -6.81717e-01 -6.47228e-01
       H -1.30124e-01  4.91289e-01  8.23171e-01
       H -1.05490e+00  5.07483e-01  4.66074e-02
       H -4.78820e-01 -3.61058e-01  8.60895e-02
7
# CELL(abcABC):  529.17722   529.17722   529.17722    90.00000    90.00000    90.00000  Step:        1120  Bead:       0 forces{eV/ang}  cell{angstrom}
       O -2.98003e-01  1.49824e-01  1.88737e-01
       H  5.06348e-01 -9.19662e-02  6.48419e-01
       H -2.41656e-01 -1.27494e-01 -4.77674e-01
       O  7.50980e-02 -5.08641e-01  7.72779e-01
       H  1.34504e-01 -1.05617e-01 -8.62120e-01
       H -9.71874e-02  4.05067e-01 -1.25917e-01
       H -7.91039e-02  2.78827e-01 -1.44224e-01
7
# CELL(abcABC):  529.17722   529.17722   529.17722    90.00000    90.00000    90.00000  Step:        1140  Bead:       0 forces{eV/ang}  cell{angstrom}
       O -2.15886e-01 -3.11852e-01 -1.09894e+00
       H -5.08601e-02  1.03544e-02  2.78945e-01
       H  1.21257e-01  1.42518e-01  4.26494e-01
       O -1.51304e+00  5.25283e-01  4.82881e-01
       H  6.11805e-02 -3.04989e-01 -5.47200e-02
       H  7.95257e-01 -6.85573e-01  7.87508e-02
       H  8.02087e-01  6.24258e-01 -1.13413e-01
7
# CELL(abcABC):  529.17722   529.17722   529.17722    90.00000    90.00000    90.00000  Step:        1160  Bead:       0 forces{eV/ang}  cell{angstrom}
       O -9.21376e-01  6.28540e-01  1.08601e+00
       H  5.98130e-01 -4.92674e-01 -5.00912e-01
       H  2.57153e-01 -1.22467e-01 -5.66462e-01
       O -1.53669e+00 -1.53200e+00 -7.44343e-02
       H  5.13016e-02  7.20996e-01  3.95667e-01
       H  9.56339e-01 -1.69682e-01  2.93854e-02
       H  5.95141e-01  9.67283e-01 -3.69251e-01
7
# CELL(abcABC):  529.17722   529.17722   529.17722    90.00000    90.00000    90.00000  Step:        1180  Bead:       0 forces{eV/ang}  cell{angstrom}
       O -5.29122e-01 -2.31504e-01  2.80205e-01
       H -1.57968e-01  1.15615e+00 -6.61807e-01
       H  2.77969e-01 -2.57769e-01  9.47979e-01
       O -7.22737e-01 -4.90626e-01  4.40579e-01
       H  2.78204e-01 -5.32033e-01 -3.82481e-01
       H  1.97859e-01 -3.81112e-01 -1.36464e-01
       H  6.55796e-01  7.36892e-01 -4.88010e-01
7
# CELL(abcABC):  529.17722   529.17722   529.17722    90.00000    90.00000    90.00000  Step:        1200  Bead:       0 forces{eV/ang}  cell{angstrom}
       O -1.64248e+00 -2.17667e-01  1.50257e+00
       H  1.18755e+00  4.43889e-01 -1.31058e+00
       H  6.13056e-01 -3.26959e-01 -2.81634e-01
       O  6.62173e-01 -6.79104e-01 -6.69247e-01
       H -4.69065e-01  1.04442e-01  4.98217e-01
       H -4.81079e-01  1.32118e-01  2.41608e-01
       H  1.29846e-01  5.43281e-01  1.90683e-02
7