7
Lattice="529.1772105638412 0.0 0.0 0.0 529.1772105638412 0.0 0.0 0.0 529.1772105638412" Properties=species:S:1:pos:R:3:forces_component_raw:R:3 ipi_comment="Step:           0  Bead:       0 forces_component_raw{ase}  cell{ase}" pbc="T T T"
O        0.00000000       0.00000000       0.00000000      -1.26994663      -1.20028365      -0.99614703
H        0.00000000       0.00000000       0.00000000       1.96535870       1.59750103       1.39244561
H        0.00000000       0.00000000       0.00000000      -0.67521732       0.50068727       0.31939752
O        0.00000000       0.00000000       0.00000000       0.04189547      -0.38236023      -0.04456543
H        0.00000000       0.00000000       0.00000000      -0.07924194      -0.50624804      -0.49307989
H        0.00000000       0.00000000       0.00000000       0.42834781       0.13011794      -0.10622574
H        0.00000000       0.00000000       0.00000000      -0.41119610      -0.13941431      -0.07182504
7
Lattice="529.1772105638412 0.0 0.0 0.0 529.1772105638412 0.0 0.0 0.0 529.1772105638412" Properties=species:S:1:pos:R:3:forces_component_raw:R:3 ipi_comment="Step:          20  Bead:       0 forces_component_raw{ase}  cell{ase}" pbc="T T T"
O        0.00000000       0.00000000       0.00000000       0.81363408      -1.30012043      -1.93165793
H        0.00000000       0.00000000       0.00000000       0.96177026       0.51946907       0.61328400
H        0.00000000       0.00000000       0.00000000      -1.87483097       0.49020011       0.91545310
O        0.00000000       0.00000000       0.00000000      -0.63400890       0.32096323       0.66137957
H        0.00000000       0.00000000       0.00000000       0.55834849       0.12760075       0.26402133
H        0.00000000       0.00000000       0.00000000       0.78312216       0.25942770      -0.32325926
H        0.00000000       0.00000000       0.00000000      -0.60803514      -0.41754043      -0.19922080
7
Lattice="529.1772105638412 0.0 0.0 0.0 529.1772105638412 0.0 0.0 0.0 529.1772105638412" Properties=species:S:1:pos:R:3:forces_component_raw:R:3 ipi_comment="Step:          40  Bead:       0 forces_component_raw{ase}  cell{ase}" pbc="T T T"
O        0.00000000       0.00000000       0.00000000       0.86794962      -0.08552073      -0.25373870
H        0.00000000       0.00000000       0.00000000       0.38784934      -0.05655223      -0.20863081
H        0.00000000       0.00000000       0.00000000      -1.00019989      -0.23975771       0.15842475
O        0.00000000       0.00000000       0.00000000      -0.24457856       0.61286660       0.58845978
H        0.00000000       0.00000000       0.00000000      -0.44336092       0.00641818       0.04455712
H        0.00000000       0.00000000       0.00000000       0.33813974      -0.24300367      -0.31894228
H        0.00000000       0.00000000       0.00000000       0.09420066       0.00554956      -0.01012987
7
Lattice="529.1772105638412 0.0 0.0 0.0 529.1772105638412 0.0 0.0 0.0 529.1772105638412" Properties=species:S:1:pos:R:3:forces_component_raw:R:3 ipi_comment="Step:          60  Bead:       0 forces_component_raw{ase}  cell{ase}" pbc="T T T"
O        0.00000000       0.00000000       0.00000000       0.64294821      -0.01865585       0.23377924
H        0.00000000       0.00000000       0.00000000      -1.03542427      -0.82679172      -0.82834225
H        0.00000000       0.00000000       0.00000000       0.30066229       0.33832283       0.28152880
O        0.00000000       0.00000000       0.00000000      -1.37558675      -0.55836508       0.62136172
H        0.00000000       0.00000000       0.00000000       0.18326643       0.16776199      -0.02114692
H        0.00000000       0.00000000       0.00000000       1.02408860       0.11726695      -0.41598935
H        0.00000000       0.00000000       0.00000000       0.26004549       0.78046088       0.12880877
7
Lattice="529.1772105638412 0.0 0.0 0.0 529.1772105638412 0.0 0.0 0.0 529.1772105638412" Properties=species:S:1:pos:R:3:forces_component_raw:R:3 ipi_comment="Step:          80  Bead:       0 forces_component_raw{ase}  cell{ase}" pbc="T T T"
O        0.00000000       0.00000000       0.00000000       0.62651994       0.29376466       1.89473387
H        0.00000000       0.00000000       0.00000000      -1.08326221      -0.64562502      -1.64360544
H        0.00000000       0.00000000       0.00000000       0.77475677       0.16932564      -0.71614962
O        0.00000000       0.00000000       0.00000000      -0.51610258      -1.02041059       0.15855665
H        0.00000000       0.00000000       0.00000000      -0.33489202      -0.26605087       0.37946870
H        0.00000000       0.00000000       0.00000000       0.23739741       0.31567801       0.00441570
H        0.00000000       0.00000000       0.00000000       0.29558269       1.15331817      -0.07741985
7
Lattice="529.1772105638412 0.0 0.0 0.0 529.1772105638412 0.0 0.0 0.0 529.1772105638412" Properties=species:S:1:pos:R:3:forces_component_raw:R:3 ipi_comment="Step:         100  Bead:       0 forces_component_raw{ase}  cell{ase}" pbc="T T T"
O        0.00000000       0.00000000       0.00000000       0.85389634      -0.16680220       2.22072679
H        0.00000000       0.00000000       0.00000000      -1.74704800      -0.04799736      -1.38458291
H        0.00000000       0.00000000       0.00000000       0.99502089       0.45544461      -0.59321744
O        0.00000000       0.00000000       0.00000000      -0.15731702      -1.63420912       0.17390720
H        0.00000000       0.00000000       0.00000000      -0.26968880       0.34668190       0.24772752
H        0.00000000       0.00000000       0.00000000      -0.71572923      -0.34138145       0.29917840
H        0.00000000       0.00000000       0.00000000       1.04086582       1.38826363      -0.96373955
7
Lattice="529.1772105638412 0.0 0.0 0.0 529.1772105638412 0.0 0.0 0.0 529.1772105638412" Properties=species:S:1:pos:R:3:forces_component_raw:R:3 ipi_comment="Step:         120  Bead:       0 forces_component_raw{ase}  cell{ase}" pbc="T T T"
O        0.00000000       0.00000000       0.00000000       0.18720155       0.64922442       2.37644844
H        0.00000000       0.00000000       0.00000000      -2.10079223      -0.29496614      -1.51492593
H        0.00000000       0.00000000       0.00000000       1.61149683       0.10544890      -0.75878132
O        0.00000000       0.00000000       0.00000000       1.40899122      -2.32360999       0.33966780
H        0.00000000       0.00000000       0.00000000       0.47653677      -0.60661575       0.00561407
H        0.00000000       0.00000000       0.00000000      -1.14494215       0.51954821      -0.07153304
H        0.00000000       0.00000000       0.00000000      -0.43849199       1.95097034      -0.37649002
7
Lattice="529.1772105638412 0.0 0.0 0.0 529.1772105638412 0.0 0.0 0.0 529.1772105638412" Properties=species:S:1:pos:R:3:forces_component_raw:R:3 ipi_comment="Step:         140  Bead:       0 forces_component_raw{ase}  cell{ase}" pbc="T T T"
O        0.00000000       0.00000000       0.00000000      -0.28658011      -0.07507407       1.71979468
H        0.00000000       0.00000000       0.00000000      -1.60213761      -0.27706212      -1.28101264
H        0.00000000       0.00000000       0.00000000       1.98311454      -0.29817847      -0.80285305
O        0.00000000       0.00000000       0.00000000      -0.20157248       0.00827924       0.30310257
H        0.00000000       0.00000000       0.00000000       0.13693275       0.08337739      -0.00263456
H        0.00000000       0.00000000       0.00000000      -0.65632819      -0.77914949       0.01249230
H        0.00000000       0.00000000       0.00000000       0.62657111       1.33780751       0.05111069
7
Lattice="529.1772105638412 0.0 0.0 0.0 529.1772105638412 0.0 0.0 0.0 529.1772105638412" Properties=species:S:1:pos:R:3:forces_component_raw:R:3 ipi_comment="Step:         160  Bead:       0 forces_component_raw{ase}  cell{ase}" pbc="T T T"
O        0.00000000       0.00000000       0.00000000      -0.81369268       0.43825782       1.80245246
H        0.00000000       0.00000000       0.00000000      -0.61107482      -0.40184950      -1.20233606
H        0.00000000       0.00000000       0.00000000       1.51542142      -0.60864658      -0.74525239
O        0.00000000       0.00000000       0.00000000       0.54260183      -1.03646188      -0.73204995
H        0.00000000       0.00000000       0.00000000      -0.01821448       0.62431815       0.26522755
H        0.00000000       0.00000000       0.00000000      -0.29616054       0.27468422       0.19063770
H        0.00000000       0.00000000       0.00000000      -0.31888074       0.70969777       0.42132068
7
Lattice="529.1772105638412 0.0 0.0 0.0 529.1772105638412 0.0 0.0 0.0 529.1772105638412" Properties=species:S:1:pos:R:3:forces_component_raw:R:3 ipi_comment="Step:         180  Bead:       0 forces_component_raw{ase}  cell{ase}" pbc="T T T"
O        0.00000000       0.00000000       0.00000000      -0.89613304       0.22419533      -0.11286289
H        0.00000000       0.00000000       0.00000000      -0.37940308      -0.23608674      -0.49468774
H        0.00000000       0.00000000       0.00000000       1.28444028      -0.51544509       0.17359926
O        0.00000000       0.00000000       0.00000000      -1.31264482       0.73106462       0.65616604
H        0.00000000       0.00000000       0.00000000       0.27685500      -0.06867568       0.05417167
H        0.00000000       0.00000000       0.00000000       0.65553101      -0.36607013      -0.24834728
H        0.00000000       0.00000000       0.00000000       0.37135464       0.23101768      -0.02803906
7
Lattice="529.1772105638412 0.0 0.0 0.0 529.1772105638412 0.0 0.0 0.0 529.1772105638412" Properties=species:S:1:pos:R:3:forces_component_raw:R:3 ipi_comment="Step:         200  Bead:       0 forces_component_raw{ase}  cell{ase}" pbc="T T T"
O        0.00000000       0.00000000       0.00000000      -1.20531052       0.82259802      -1.34733053
H        0.00000000       0.00000000       0.00000000       0.32488291       0.16741781       1.21880230
H        0.00000000       0.00000000       0.00000000       0.91964774      -0.55466184       0.25348068
O        0.00000000       0.00000000       0.00000000      -0.16837092      -0.37895352      -0.31372664
H        0.00000000       0.00000000       0.00000000      -0.21637373      -0.34520141       0.22071519
H        0.00000000       0.00000000       0.00000000       0.86472011       0.42814197      -0.42209279
H        0.00000000       0.00000000       0.00000000      -0.51919559      -0.13934102       0.39015179
7
Lattice="529.1772105638412 0.0 0.0 0.0 529.1772105638412 0.0 0.0 0.0 529.1772105638412" Properties=species:S:1:pos:R:3:forces_component_raw:R:3 ipi_comment="Step:         220  Bead:       0 forces_component_raw{ase}  cell{ase}" pbc="T T T"
O        0.00000000       0.00000000       0.00000000       0.13788809       0.32359317      -1.64037776
H        0.00000000       0.00000000       0.00000000       0.20159527       0.07241540       2.39152971
H        0.00000000       0.00000000       0.00000000      -0.36715220       0.22187653      -0.36328802
O        0.00000000       0.00000000       0.00000000      -0.38038547       0.84313652      -0.65214973
H        0.00000000       0.00000000       0.00000000      -0.17586091       0.45311106      -0.00833221
H        0.00000000       0.00000000       0.00000000       0.52864493      -0.32950610       0.01403628
H        0.00000000       0.00000000       0.00000000       0.05527029      -1.58462658       0.25858173
7
Lattice="529.1772105638412 0.0 0.0 0.0 529.1772105638412 0.0 0.0 0.0 529.1772105638412" Properties=species:S:1:pos:R:3:forces_component_raw:R:3 ipi_comment="Step:         240  Bead:       0 forces_component_raw{ase}  cell{ase}" pbc="T T T"
O        0.00000000       0.00000000       0.00000000       2.33673263      -0.46038887      -2.11410335
H        0.00000000       0.00000000       0.00000000      -0.71001773      -0.17146826       3.21674719
H        0.00000000       0.00000000       0.00000000      -1.53926360       1.02124640      -0.93768073
O        0.00000000       0.00000000       0.00000000       0.44483272       1.17752806      -0.73477944
H        0.00000000       0.00000000       0.00000000      -0.24787187      -0.35249678      -0.14952978
H        0.00000000       0.00000000       0.00000000       0.54432390       0.52324458      -0.36340230
H        0.00000000       0.00000000       0.00000000      -0.82873605      -1.73766514       1.08274841
7
Lattice="529.1772105638412 0.0 0.0 0.0 529.1772105638412 0.0 0.0 0.0 529.1772105638412" Properties=species:S:1:pos:R:3:forces_component_raw:R:3 ipi_comment="Step:         260  Bead:       0 forces_component_raw{ase}  cell{ase}" pbc="T T T"
O        0.00000000       0.00000000       0.00000000       2.61020251      -1.66663346      -0.12104200
H        0.00000000       0.00000000       0.00000000      -0.36251095      -0.52439408       2.02770320
H        0.00000000       0.00000000       0.00000000      -2.18771771       1.69244491      -2.15145062
O        0.00000000       0.00000000       0.00000000      -0.66219076       2.94782624      -0.23766141
H        0.00000000       0.00000000       0.00000000       0.25908240       0.11372630      -0.33289048
H        0.00000000       0.00000000       0.00000000       0.32338307      -0.30629364       0.04492158
H        0.00000000       0.00000000       0.00000000       0.01975144      -2.25667628       0.77041973
7
Lattice="529.1772105638412 0.0 0.0 0.0 529.1772105638412 0.0 0.0 0.0 529.1772105638412" Properties=species:S:1:pos:R:3:forces_component_raw:R:3 ipi_comment="Step:         280  Bead:       0 forces_component_raw{ase}  cell{ase}" pbc="T T T"
O        0.00000000       0.00000000       0.00000000       2.20375699      -2.09472125       0.30374647
H        0.00000000       0.00000000       0.00000000      -0.29694373       0.08346447       0.49286451
H        0.00000000       0.00000000       0.00000000      -1.82806320       1.38669715      -1.15959587
O        0.00000000       0.00000000       0.00000000      -0.19073172       0.25357471      -0.58019200
H        0.00000000       0.00000000       0.00000000      -0.33918154       0.40376022       0.70985807
H        0.00000000       0.00000000       0.00000000       1.15036247       0.58581173      -0.40905135
H        0.00000000       0.00000000       0.00000000      -0.69919927      -0.61858704       0.64237016
7
Lattice="529.1772105638412 0.0 0.0 0.0 529.1772105638412 0.0 0.0 0.0 529.1772105638412" Properties=species:S:1:pos:R:3:forces_component_raw:R:3 ipi_comment="Step:         300  Bead:       0 forces_component_raw{ase}  cell{ase}" pbc="T T T"
O        0.00000000       0.00000000       0.00000000       0.90228221      -1.59309971       1.05854158
H        0.00000000       0.00000000       0.00000000       0.25350974      -0.02181961      -0.32638681
H        0.00000000       0.00000000       0.00000000      -1.01330459       0.89087598      -1.02091713
O        0.00000000       0.00000000       0.00000000      -1.88026914       0.51889722       0.74548076
H        0.00000000       0.00000000       0.00000000       0.26803876       0.09630381      -0.17871927
H        0.00000000       0.00000000       0.00000000       1.16215824      -0.09116394      -0.16352100
H        0.00000000       0.00000000       0.00000000       0.30758478       0.20000625      -0.11447813
7
Lattice="529.1772105638412 0.0 0.0 0.0 529.1772105638412 0.0 0.0 0.0 529.1772105638412" Properties=species:S:1:pos:R:3:forces_component_raw:R:3 ipi_comment="Step:         320  Bead:       0 forces_component_raw{ase}  cell{ase}" pbc="T T T"
O        0.00000000       0.00000000       0.00000000       0.38296362      -0.73112731       0.76668991
H        0.00000000       0.00000000       0.00000000       0.12610891       0.23577553      -1.00009009
H        0.00000000       0.00000000       0.00000000      -0.40390947       0.31055320      -0.01195465
O        0.00000000       0.00000000       0.00000000      -0.31081680      -1.90642393       0.67730132
H        0.00000000       0.00000000       0.00000000       0.11313491      -0.09133497       0.18800395
H        0.00000000       0.00000000       0.00000000       0.71720898       0.78230048      -0.33555999
H        0.00000000       0.00000000       0.00000000      -0.62469016       1.40025700      -0.28439046
7
Lattice="529.1772105638412 0.0 0.0 0.0 529.1772105638412 0.0 0.0 0.0 529.1772105638412" Properties=species:S:1:pos:R:3:forces_component_raw:R:3 ipi_comment="Step:         340  Bead:       0 forces_component_raw{ase}  cell{ase}" pbc="T T T"
O        0.00000000       0.00000000       0.00000000      -0.83008293       1.94112183      -0.09687037
H        0.00000000       0.00000000       0.00000000       0.22607563      -0.26523281      -0.20031279
H        0.00000000       0.00000000       0.00000000       0.67636656      -1.49155179       0.51214937
O        0.00000000       0.00000000       0.00000000      -0.82172582      -0.55407623       0.46455887
H        0.00000000       0.00000000       0.00000000      -0.25495982       0.12809995      -0.16354811
H        0.00000000       0.00000000       0.00000000      -0.08275636      -0.71331202       0.24840502
H        0.00000000       0.00000000       0.00000000       1.08708274       0.95495108      -0.76438200
7
Lattice="529.1772105638412 0.0 0.0 0.0 529.1772105638412 0.0 0.0 0.0 529.1772105638412" Properties=species:S:1:pos:R:3:forces_component_raw:R:3 ipi_comment="Step:         360  Bead:       0 forces_component_raw{ase}  cell{ase}" pbc="T T T"
O        0.00000000       0.00000000       0.00000000       0.35219483       1.66077475      -1.58649614
H        0.00000000       0.00000000       0.00000000      -0.00455371       0.00681908       0.03218869
H        0.00000000       0.00000000       0.00000000      -0.12509927      -1.67860851       1.35206835
O        0.00000000       0.00000000       0.00000000       1.14467359      -1.55347473      -0.97848798
H        0.00000000       0.00000000       0.00000000      -0.18447194       0.04001708       0.10750591
H        0.00000000       0.00000000       0.00000000      -1.09239291       0.56843502       0.90857766
H        0.00000000       0.00000000       0.00000000      -0.09035059       0.95603731       0.16464352
7
Lattice="529.1772105638412 0.0 0.0 0.0 529.1772105638412 0.0 0.0 0.0 529.1772105638412" Properties=species:S:1:pos:R:3:forces_component_raw:R:3 ipi_comment="Step:         380  Bead:       0 forces_component_raw{ase}  cell{ase}" pbc="T T T"
O        0.00000000       0.00000000       0.00000000       0.13042973       2.27080293      -0.80162980
H        0.00000000       0.00000000       0.00000000       0.04609187      -0.32242030       0.15658056
H        0.00000000       0.00000000       0.00000000      -0.33539886      -1.96347980       0.64089309
O        0.00000000       0.00000000       0.00000000       0.34995514      -0.00489946      -0.17376061
H        0.00000000       0.00000000       0.00000000       0.46187193      -0.25577013      -0.41796044
H        0.00000000       0.00000000       0.00000000      -1.23892157      -0.49663781       0.94461302
H        0.00000000       0.00000000       0.00000000       0.58597175       0.77240455      -0.34873583
7
Lattice="529.1772105638412 0.0 0.0 0.0 529.1772105638412 0.0 0.0 0.0 529.1772105638412" Properties=species:S:1:pos:R:3:forces_component_raw:R:3 ipi_comment="Step:         400  Bead:       0 forces_component_raw{ase}  cell{ase}" pbc="T T T"
O        0.00000000       0.00000000       0.00000000       0.44262404      -0.34757074      -0.78802306
H        0.00000000       0.00000000       0.00000000       0.11034947       0.21247235      -0.27387570
H        0.00000000       0.00000000       0.00000000      -0.17997783      -0.90400683       0.25386295
O        0.00000000       0.00000000       0.00000000       0.81510125       0.60860593      -0.49895192
H        0.00000000       0.00000000       0.00000000      -0.10625225       0.13626397       0.40183614
H        0.00000000       0.00000000       0.00000000      -0.80730877       0.22175533       0.63606061
H        0.00000000       0.00000000       0.00000000      -0.27453590       0.07248000       0.26909097
7
Lattice="529.1772105638412 0.0 0.0 0.0 529.1772105638412 0.0 0.0 0.0 529.1772105638412" Properties=species:S:1:pos:R:3:forces_component_raw:R:3 ipi_comment="Step:         420  Bead:       0 forces_component_raw{ase}  cell{ase}" pbc="T T T"
O        0.00000000       0.00000000       0.00000000       0.42166716      -0.88174625       0.61642356
H        0.00000000       0.00000000       0.00000000      -0.31605917       0.25921401      -0.63457815
H        0.00000000       0.00000000       0.00000000       0.12963546       0.14713308      -0.34412017
O        0.00000000       0.00000000       0.00000000       0.37970759       1.26793573      -0.02129345
H        0.00000000       0.00000000       0.00000000      -0.14458765      -0.04781925       0.24081644
H        0.00000000       0.00000000       0.00000000      -0.16356443      -0.02914458       0.10379150
H        0.00000000       0.00000000       0.00000000      -0.30679897      -0.71557274       0.03896027
7
Lattice="529.1772105638412 0.0 0.0 0.0 529.1772105638412 0.0 0.0 0.0 529.1772105638412" Properties=species:S:1:pos:R:3:forces_component_raw:R:3 ipi_comment="Step:         440  Bead:       0 forces_component_raw{ase}  cell{ase}" pbc="T T T"
O        0.00000000       0.00000000       0.00000000      -0.88981421      -1.15047662       0.08885561
H        0.00000000       0.00000000       0.00000000      -0.08495258       0.42930940      -0.07253851
H        0.00000000       0.00000000       0.00000000       0.81509265       0.99110350       0.11725053
O        0.00000000       0.00000000       0.00000000      -0.03293780       1.18242433      -0.08366027
H        0.00000000       0.00000000       0.00000000       0.26007725       0.07100535       0.27713733
H        0.00000000       0.00000000       0.00000000       0.99872915       0.22438042      -0.60224393
H        0.00000000       0.00000000       0.00000000      -1.06619447      -1.74774637       0.27519925
7
Lattice="529.1772105638412 0.0 0.0 0.0 529.1772105638412 0.0 0.0 0.0 529.1772105638412" Properties=species:S:1:pos:R:3:forces_component_raw:R:3 ipi_comment="Step:         460  Bead:       0 forces_component_raw{ase}  cell{ase}" pbc="T T T"
O        0.00000000       0.00000000       0.00000000      -0.96303641      -0.19699072       0.84744763
H        0.00000000       0.00000000       0.00000000      -0.30080886      -0.19548145      -0.10014135
H        0.00000000       0.00000000       0.00000000       1.06033894       1.28369125      -0.20543728
O        0.00000000       0.00000000       0.00000000      -1.74711184       0.97351587       0.94327051
H        0.00000000       0.00000000       0.00000000       0.12355040      -0.41670761      -0.18734323
H        0.00000000       0.00000000       0.00000000       2.21431036      -0.23657748      -1.21686642
H        0.00000000       0.00000000       0.00000000      -0.38724259      -1.21144987      -0.08092986
7
Lattice="529.1772105638412 0.0 0.0 0.0 529.1772105638412 0.0 0.0 0.0 529.1772105638412" Properties=species:S:1:pos:R:3:forces_component_raw:R:3 ipi_comment="Step:         480  Bead:       0 forces_component_raw{ase}  cell{ase}" pbc="T T T"
O        0.00000000       0.00000000       0.00000000       0.11474753      -0.46755624      -0.70130256
H        0.00000000       0.00000000       0.00000000      -0.20302592      -0.07508634       0.70358446
H        0.00000000       0.00000000       0.00000000       0.10355633       0.05672735       0.05038847
O        0.00000000       0.00000000       0.00000000      -2.31438222      -0.22140585       1.15849828
H        0.00000000       0.00000000       0.00000000       0.02800405       0.48915478      -0.31265935
H        0.00000000       0.00000000       0.00000000       2.64229079       0.39612097      -1.15873962
H        0.00000000       0.00000000       0.00000000      -0.37119055      -0.17795466       0.26023032
7
Lattice="529.1772105638412 0.0 0.0 0.0 529.1772105638412 0.0 0.0 0.0 529.1772105638412" Properties=species:S:1:pos:R:3:forces_component_raw:R:3 ipi_comment="Step:         500  Bead:       0 forces_component_raw{ase}  cell{ase}" pbc="T T T"
O        0.00000000       0.00000000       0.00000000       1.39541681       0.58074586      -1.88594952
H        0.00000000       0.00000000       0.00000000      -1.06203175      -0.36513892       1.52758857
H        0.00000000       0.00000000       0.00000000      -0.30450977      -0.90126533      -0.17606432
O        0.00000000       0.00000000       0.00000000      -1.77555191       0.70688902       1.19190150
H        0.00000000       0.00000000       0.00000000       0.24548984      -0.13622429      -0.07836150
H        0.00000000       0.00000000       0.00000000       1.29303736      -0.15901241      -0.66294705
H        0.00000000       0.00000000       0.00000000       0.20814943       0.27400607       0.08383232
7
Lattice="529.1772105638412 0.0 0.0 0.0 529.1772105638412 0.0 0.0 0.0 529.1772105638412" Properties=species:S:1:pos:R:3:forces_component_raw:R:3 ipi_comment="Step:         520  Bead:       0 forces_component_raw{ase}  cell{ase}" pbc="T T T"
O        0.00000000       0.00000000       0.00000000       1.44143946       0.17451036      -1.60846859
H        0.00000000       0.00000000       0.00000000      -1.13255598      -0.01365583       1.07650184
H        0.00000000       0.00000000       0.00000000      -0.23978356      -0.51973036       0.09150400
O        0.00000000       0.00000000       0.00000000       0.64718543      -0.48839838      -0.80905411
H        0.00000000       0.00000000       0.00000000       0.07435729       0.28070083       0.50964041
H        0.00000000       0.00000000       0.00000000      -1.03435769       0.17677154       0.66709448
H        0.00000000       0.00000000       0.00000000       0.24371506       0.38980186       0.07278196
7
Lattice="529.1772105638412 0.0 0.0 0.0 529.1772105638412 0.0 0.0 0.0 529.1772105638412" Properties=species:S:1:pos:R:3:forces_component_raw:R:3 ipi_comment="Step:         540  Bead:       0 forces_component_raw{ase}  cell{ase}" pbc="T T T"
O        0.00000000       0.00000000       0.00000000      -0.32984336       0.00604309       0.26346861
H        0.00000000       0.00000000       0.00000000       0.36130835      -0.60967175      -0.29717797
H        0.00000000       0.00000000       0.00000000       0.51903993       0.05243439      -0.39095813
O        0.00000000       0.00000000       0.00000000       1.16917398      -0.51187493      -0.52972817
H        0.00000000       0.00000000       0.00000000      -0.50819917      -0.06065577      -0.26146043
H        0.00000000       0.00000000       0.00000000      -1.31699274       0.90293012       1.17000644
H        0.00000000       0.00000000       0.00000000       0.10551300       0.22079485       0.04584965
7
Lattice="529.1772105638412 0.0 0.0 0.0 529.1772105638412 0.0 0.0 0.0 529.1772105638412" Properties=species:S:1:pos:R:3:forces_component_raw:R:3 ipi_comment="Step:         560  Bead:       0 forces_component_raw{ase}  cell{ase}" pbc="T T T"
O        0.00000000       0.00000000       0.00000000      -1.24401077      -2.35326372       0.65084527
H        0.00000000       0.00000000       0.00000000       1.36253737       0.68894972      -0.34890765
H        0.00000000       0.00000000       0.00000000      -0.05906395       1.54689377      -0.41439884
O        0.00000000       0.00000000       0.00000000       2.11375321      -0.29105161      -0.68280354
H        0.00000000       0.00000000       0.00000000       0.08044336       0.13725540      -0.03883610
H        0.00000000       0.00000000       0.00000000      -2.04189850       0.94881983       0.89885512
H        0.00000000       0.00000000       0.00000000      -0.21176073      -0.67760340      -0.06475426
7
Lattice="529.1772105638412 0.0 0.0 0.0 529.1772105638412 0.0 0.0 0.0 529.1772105638412" Properties=species:S:1:pos:R:3:forces_component_raw:R:3 ipi_comment="Step:         580  Bead:       0 forces_component_raw{ase}  cell{ase}" pbc="T T T"
O        0.00000000       0.00000000       0.00000000      -2.67294147       0.01256408       0.94823497
H        0.00000000       0.00000000       0.00000000       1.81135270      -0.38204800       0.00787170
H        0.00000000       0.00000000       0.00000000       0.67460698       1.00722845      -0.47393447
O        0.00000000       0.00000000       0.00000000       2.77271338      -1.27470481      -0.75958977
H        0.00000000       0.00000000       0.00000000      -0.15858132      -0.15974850       0.23775987
H        0.00000000       0.00000000       0.00000000      -2.00512303       0.79635546      -0.06553563
H        0.00000000       0.00000000       0.00000000      -0.42202724       0.00035333       0.10519334
7
Lattice="529.1772105638412 0.0 0.0 0.0 529.1772105638412 0.0 0.0 0.0 529.1772105638412" Properties=species:S:1:pos:R:3:forces_component_raw:R:3 ipi_comment="Step:         600  Bead:       0 forces_component_raw{ase}  cell{ase}" pbc="T T T"
O        0.00000000       0.00000000       0.00000000      -1.33450499      -0.39412510       0.80269131
H        0.00000000       0.00000000       0.00000000       1.27150212       0.51936522      -0.66883421
H        0.00000000       0.00000000       0.00000000      -0.48483815      -0.20112221       0.14143359
O        0.00000000       0.00000000       0.00000000       1.84078360       0.03693891       0.19031567