7
Lattice="529.1772105638412 0.0 0.0 0.0 529.1772105638412 0.0 0.0 0.0 529.1772105638412" Properties=species:S:1:pos:R:3:forces_component_raw:R:3 ipi_comment="Step:           0  Bead:       0 forces_component_raw{ase}  cell{ase}" pbc="T T T"
O        0.00000000       0.00000000       0.00000000      -1.26994663      -1.20028365      -0.99614703
H        0.00000000       0.00000000       0.00000000       1.96535870       1.59750103       1.39244561
H        0.00000000       0.00000000       0.00000000      -0.67521732       0.50068727       0.31939752
O        0.00000000       0.00000000       0.00000000       0.04189547      -0.38236023      -0.04456543
H        0.00000000       0.00000000       0.00000000      -0.07924194      -0.50624804      -0.49307989
H        0.00000000       0.00000000       0.00000000       0.42834781       0.13011794      -0.10622574
H        0.00000000       0.00000000       0.00000000      -0.41119610      -0.13941431      -0.07182504
7
Lattice="529.1772105638412 0.0 0.0 0.0 529.1772105638412 0.0 0.0 0.0 529.1772105638412" Properties=species:S:1:pos:R:3:forces_component_raw:R:3 ipi_comment="Step:          20  Bead:       0 forces_component_raw{ase}  cell{ase}" pbc="T T T"
O        0.00000000       0.00000000       0.00000000      -0.01635703      -0.78141621      -1.21863152
H        0.00000000       0.00000000       0.00000000       0.96961547       0.34702740       0.45358097
H        0.00000000       0.00000000       0.00000000      -0.95815418       0.03108865       0.27961860
O        0.00000000       0.00000000       0.00000000      -0.68283860       0.19659712       0.41471447
H        0.00000000       0.00000000       0.00000000       0.42763038      -0.01702676       0.16733320
H        0.00000000       0.00000000       0.00000000       0.26391577       0.18524422      -0.09086954
H        0.00000000       0.00000000       0.00000000      -0.00381181       0.03848558      -0.00574617
7
Lattice="529.1772105638412 0.0 0.0 0.0 529.1772105638412 0.0 0.0 0.0 529.1772105638412" Properties=species:S:1:pos:R:3:forces_component_raw:R:3 ipi_comment="Step:          40  Bead:       0 forces_component_raw{ase}  cell{ase}" pbc="T T T"
O        0.00000000       0.00000000       0.00000000       0.92615583      -0.14844322      -0.13913930
H        0.00000000       0.00000000       0.00000000      -0.31567729      -0.31353625      -0.45495427
H        0.00000000       0.00000000       0.00000000      -0.46481335      -0.04743656       0.18832864
O        0.00000000       0.00000000       0.00000000       0.21076933      -0.12054436      -0.01035906
H        0.00000000       0.00000000       0.00000000      -0.45213158       0.40830707       0.40726723
H        0.00000000       0.00000000       0.00000000      -0.10720111      -0.13207673      -0.11413940
H        0.00000000       0.00000000       0.00000000       0.20289816       0.35373005       0.12299616
7
Lattice="529.1772105638412 0.0 0.0 0.0 529.1772105638412 0.0 0.0 0.0 529.1772105638412" Properties=species:S:1:pos:R:3:forces_component_raw:R:3 ipi_comment="Step:          60  Bead:       0 forces_component_raw{ase}  cell{ase}" pbc="T T T"
O        0.00000000       0.00000000       0.00000000       1.06169382      -0.49821037       0.13522579
H        0.00000000       0.00000000       0.00000000      -1.03573959      -0.86416265      -0.96955757
H        0.00000000       0.00000000       0.00000000      -0.06068782       0.20875724       0.20399991
O        0.00000000       0.00000000       0.00000000      -0.10617649       0.25066259       0.30083853
H        0.00000000       0.00000000       0.00000000       0.21628089       0.34122492      -0.18419934
H        0.00000000       0.00000000       0.00000000      -0.28759617       0.15886592       0.28362143
H        0.00000000       0.00000000       0.00000000       0.21222535       0.40286235       0.23007126
7
Lattice="529.1772105638412 0.0 0.0 0.0 529.1772105638412 0.0 0.0 0.0 529.1772105638412" Properties=species:S:1:pos:R:3:forces_component_raw:R:3 ipi_comment="Step:          80  Bead:       0 forces_component_raw{ase}  cell{ase}" pbc="T T T"
O        0.00000000       0.00000000       0.00000000       1.28370386       1.62586196       2.02088135
H        0.00000000       0.00000000       0.00000000      -1.65289549      -0.54763549      -0.96809107
H        0.00000000       0.00000000       0.00000000       0.50908467      -0.09376158      -0.61835703
O        0.00000000       0.00000000       0.00000000       0.18430338      -0.24657676      -0.43603368
H        0.00000000       0.00000000       0.00000000      -0.19447251      -1.14349323      -0.47360810
H        0.00000000       0.00000000       0.00000000      -0.28234177       0.15607035       0.33738739
H        0.00000000       0.00000000       0.00000000       0.15261785       0.24953475       0.13782115
7
Lattice="529.1772105638412 0.0 0.0 0.0 529.1772105638412 0.0 0.0 0.0 529.1772105638412" Properties=species:S:1:pos:R:3:forces_component_raw:R:3 ipi_comment="Step:         100  Bead:       0 forces_component_raw{ase}  cell{ase}" pbc="T T T"
O        0.00000000       0.00000000       0.00000000       0.44569034      -0.04870754       1.32944234
H        0.00000000       0.00000000       0.00000000      -1.56975501      -0.51756073      -0.71181072
H        0.00000000       0.00000000       0.00000000       0.89714326       0.50468479      -0.72578281
O        0.00000000       0.00000000       0.00000000      -0.06842284      -0.79632057      -0.51925000
H        0.00000000       0.00000000       0.00000000       0.51877883       0.55517062       0.37069926
H        0.00000000       0.00000000       0.00000000      -0.48266540       0.24127912       0.38851901
H        0.00000000       0.00000000       0.00000000       0.25923081       0.06145432      -0.13181707
7
Lattice="529.1772105638412 0.0 0.0 0.0 529.1772105638412 0.0 0.0 0.0 529.1772105638412" Properties=species:S:1:pos:R:3:forces_component_raw:R:3 ipi_comment="Step:         120  Bead:       0 forces_component_raw{ase}  cell{ase}" pbc="T T T"
O        0.00000000       0.00000000       0.00000000       0.44063636       1.20096150       2.72850860
H        0.00000000       0.00000000       0.00000000      -1.13020307      -0.40085878      -0.86026695
H        0.00000000       0.00000000       0.00000000       0.78610793       0.04451353      -1.41904015
O        0.00000000       0.00000000       0.00000000       0.69085797      -0.37473129      -0.62659137
H        0.00000000       0.00000000       0.00000000      -0.48807789      -0.45615506      -0.04729066
H        0.00000000       0.00000000       0.00000000      -0.34591992      -0.19854846       0.20477889
H        0.00000000       0.00000000       0.00000000       0.04659861       0.18481857       0.01990164
7
Lattice="529.1772105638412 0.0 0.0 0.0 529.1772105638412 0.0 0.0 0.0 529.1772105638412" Properties=species:S:1:pos:R:3:forces_component_raw:R:3 ipi_comment="Step:         140  Bead:       0 forces_component_raw{ase}  cell{ase}" pbc="T T T"
O        0.00000000       0.00000000       0.00000000      -1.08442172      -0.27756091       0.81514983
H        0.00000000       0.00000000       0.00000000      -0.74898898      -0.53770439       0.09812736
H        0.00000000       0.00000000       0.00000000       1.44132289       0.69394765      -0.71114287
O        0.00000000       0.00000000       0.00000000       0.08231460      -0.43162233      -0.63369378
H        0.00000000       0.00000000       0.00000000       0.38904107       0.33402263      -0.21612567
H        0.00000000       0.00000000       0.00000000      -0.03147665       0.08266533       0.31856028
H        0.00000000       0.00000000       0.00000000      -0.04779121       0.13625202       0.32912486
7
Lattice="529.1772105638412 0.0 0.0 0.0 529.1772105638412 0.0 0.0 0.0 529.1772105638412" Properties=species:S:1:pos:R:3:forces_component_raw:R:3 ipi_comment="Step:         160  Bead:       0 forces_component_raw{ase}  cell{ase}" pbc="T T T"
O        0.00000000       0.00000000       0.00000000      -0.78291606       0.31913506       1.10426387
H        0.00000000       0.00000000       0.00000000       0.52864596       0.05337309      -0.33030880
H        0.00000000       0.00000000       0.00000000       0.31698856      -0.50818907      -0.98656737
O        0.00000000       0.00000000       0.00000000      -0.04487372       0.16529545       0.13831281
H        0.00000000       0.00000000       0.00000000      -0.14877579      -0.03524806       0.30223750
H        0.00000000       0.00000000       0.00000000      -0.06887092      -0.23838186      -0.20040462
H        0.00000000       0.00000000       0.00000000       0.19980196       0.24401539      -0.02753339
7
Lattice="529.1772105638412 0.0 0.0 0.0 529.1772105638412 0.0 0.0 0.0 529.1772105638412" Properties=species:S:1:pos:R:3:forces_component_raw:R:3 ipi_comment="Step:         180  Bead:       0 forces_component_raw{ase}  cell{ase}" pbc="T T T"
O        0.00000000       0.00000000       0.00000000      -0.38347993      -1.86296185      -1.32546516
H        0.00000000       0.00000000       0.00000000       0.82275109       1.11838790       0.54418014
H        0.00000000       0.00000000       0.00000000      -0.05518098       0.11687558       0.25541886
O        0.00000000       0.00000000       0.00000000      -0.65438579       0.39443411       0.83565400
H        0.00000000       0.00000000       0.00000000      -0.07643680      -0.02074225      -0.34441393
H        0.00000000       0.00000000       0.00000000       0.31181421       0.38358434      -0.17330055
H        0.00000000       0.00000000       0.00000000       0.03491819      -0.12957783       0.20792664
7
Lattice="529.1772105638412 0.0 0.0 0.0 529.1772105638412 0.0 0.0 0.0 529.1772105638412" Properties=species:S:1:pos:R:3:forces_component_raw:R:3 ipi_comment="Step:         200  Bead:       0 forces_component_raw{ase}  cell{ase}" pbc="T T T"
O        0.00000000       0.00000000       0.00000000       0.24154940      -1.11877086      -0.81203668
H        0.00000000       0.00000000       0.00000000       1.31295213       1.13766461      -0.09984461
H        0.00000000       0.00000000       0.00000000      -1.30178607      -0.44001971       0.47526120
O        0.00000000       0.00000000       0.00000000      -0.15519216       0.88564947       1.21930064
H        0.00000000       0.00000000       0.00000000      -0.07746280      -0.42997091      -0.18373274
H        0.00000000       0.00000000       0.00000000       0.04002999       0.04196405      -0.43845289
H        0.00000000       0.00000000       0.00000000      -0.06009049      -0.07651664      -0.16049493
7
Lattice="529.1772105638412 0.0 0.0 0.0 529.1772105638412 0.0 0.0 0.0 529.1772105638412" Properties=species:S:1:pos:R:3:forces_component_raw:R:3 ipi_comment="Step:         220  Bead:       0 forces_component_raw{ase}  cell{ase}" pbc="T T T"
O        0.00000000       0.00000000       0.00000000       1.65251488      -1.29026961      -1.21444563
H        0.00000000       0.00000000       0.00000000       0.33929608       0.96469025       0.04657457
H        0.00000000       0.00000000       0.00000000      -2.29508389       0.30239618       1.18009027
O        0.00000000       0.00000000       0.00000000       0.21712145      -0.58910199      -0.40855485
H        0.00000000       0.00000000       0.00000000       0.15202946       0.45446827       0.44388111
H        0.00000000       0.00000000       0.00000000       0.16542828       0.27386324      -0.23492244
H        0.00000000       0.00000000       0.00000000      -0.23130625      -0.11604635       0.18737698
7
Lattice="529.1772105638412 0.0 0.0 0.0 529.1772105638412 0.0 0.0 0.0 529.1772105638412" Properties=species:S:1:pos:R:3:forces_component_raw:R:3 ipi_comment="Step:         240  Bead:       0 forces_component_raw{ase}  cell{ase}" pbc="T T T"
O        0.00000000       0.00000000       0.00000000       1.62517650       0.82199895       0.30544540
H        0.00000000       0.00000000       0.00000000       0.24846928       0.11848086      -0.14248020
H        0.00000000       0.00000000       0.00000000      -1.91217611      -0.17004111       0.54727807
O        0.00000000       0.00000000       0.00000000       0.58825368       0.43718025      -0.14492631
H        0.00000000       0.00000000       0.00000000      -0.22766264      -0.62627078      -0.30308059
H        0.00000000       0.00000000       0.00000000       0.00922055      -0.12017032      -0.22544377
H        0.00000000       0.00000000       0.00000000      -0.33128127      -0.46117786      -0.03679259
7
Lattice="529.1772105638412 0.0 0.0 0.0 529.1772105638412 0.0 0.0 0.0 529.1772105638412" Properties=species:S:1:pos:R:3:forces_component_raw:R:3 ipi_comment="Step:         260  Bead:       0 forces_component_raw{ase}  cell{ase}" pbc="T T T"
O        0.00000000       0.00000000       0.00000000       0.68916560      -0.11075404      -0.63327813
H        0.00000000       0.00000000       0.00000000      -0.10252470      -0.22217390       0.30098925
H        0.00000000       0.00000000       0.00000000      -0.64772803       0.15373702       0.24990843
O        0.00000000       0.00000000       0.00000000       0.25925455      -0.11516832      -0.03040189
H        0.00000000       0.00000000       0.00000000       0.03813621       0.59466030      -0.01341561
H        0.00000000       0.00000000       0.00000000      -0.04399769       0.19024761       0.09762078
H        0.00000000       0.00000000       0.00000000      -0.19230594      -0.49054868       0.02857719
7
Lattice="529.1772105638412 0.0 0.0 0.0 529.1772105638412 0.0 0.0 0.0 529.1772105638412" Properties=species:S:1:pos:R:3:forces_component_raw:R:3 ipi_comment="Step:         280  Bead:       0 forces_component_raw{ase}  cell{ase}" pbc="T T T"
O        0.00000000       0.00000000       0.00000000      -0.42942245       1.07090348      -1.05556456
H        0.00000000       0.00000000       0.00000000      -0.15481396      -0.83417868       0.83155070
H        0.00000000       0.00000000       0.00000000       0.70734431      -0.22213238      -0.10960135
O        0.00000000       0.00000000       0.00000000       0.08907833       0.24611057      -0.00714959
H        0.00000000       0.00000000       0.00000000      -0.05792435      -0.16559552       0.07875894
H        0.00000000       0.00000000       0.00000000      -0.10913470      -0.01232386       0.26696596
H        0.00000000       0.00000000       0.00000000      -0.04512719      -0.08278360      -0.00496010
7
Lattice="529.1772105638412 0.0 0.0 0.0 529.1772105638412 0.0 0.0 0.0 529.1772105638412" Properties=species:S:1:pos:R:3:forces_component_raw:R:3 ipi_comment="Step:         300  Bead:       0 forces_component_raw{ase}  cell{ase}" pbc="T T T"
O        0.00000000       0.00000000       0.00000000      -1.03729126       0.78414974       0.39278782
H        0.00000000       0.00000000       0.00000000      -0.46753039      -1.37016702       0.20749342
H        0.00000000       0.00000000       0.00000000       1.62157607      -0.02092854      -0.84068564
O        0.00000000       0.00000000       0.00000000      -0.00247892       0.00330370      -0.05368154
H        0.00000000       0.00000000       0.00000000      -0.01013990       0.26978649      -0.22835197
H        0.00000000       0.00000000       0.00000000      -0.08078447       0.02932350       0.39539722
H        0.00000000       0.00000000       0.00000000      -0.02335114       0.30453212       0.12704069
7
Lattice="529.1772105638412 0.0 0.0 0.0 529.1772105638412 0.0 0.0 0.0 529.1772105638412" Properties=species:S:1:pos:R:3:forces_component_raw:R:3 ipi_comment="Step:         320  Bead:       0 forces_component_raw{ase}  cell{ase}" pbc="T T T"
O        0.00000000       0.00000000       0.00000000      -1.22661917       0.63448102       0.92568694
H        0.00000000       0.00000000       0.00000000      -0.50752899      -1.20277133      -0.01284180
H        0.00000000       0.00000000       0.00000000       1.97244047       0.14778064      -1.38324939
O        0.00000000       0.00000000       0.00000000       0.02844741       0.10654273      -0.18371222
H        0.00000000       0.00000000       0.00000000      -0.18926971      -0.22799633       0.27246502
H        0.00000000       0.00000000       0.00000000      -0.02125338      -0.25953644       0.34455764
H        0.00000000       0.00000000       0.00000000      -0.05621663       0.80149970       0.03709382
7
Lattice="529.1772105638412 0.0 0.0 0.0 529.1772105638412 0.0 0.0 0.0 529.1772105638412" Properties=species:S:1:pos:R:3:forces_component_raw:R:3 ipi_comment="Step:         340  Bead:       0 forces_component_raw{ase}  cell{ase}" pbc="T T T"
O        0.00000000       0.00000000       0.00000000      -1.82929145       0.20447917       1.79739212
H        0.00000000       0.00000000       0.00000000      -0.39811631      -0.91245179      -0.14648354
H        0.00000000       0.00000000       0.00000000       2.03502682       0.51096974      -1.50739668
O        0.00000000       0.00000000       0.00000000       0.16088143      -1.23354960      -0.12399321
H        0.00000000       0.00000000       0.00000000       0.18157200       0.38930678      -0.23408972
H        0.00000000       0.00000000       0.00000000      -0.07741987       0.03076809       0.49118969
H        0.00000000       0.00000000       0.00000000      -0.07265262       1.01047761      -0.27661866
7
Lattice="529.1772105638412 0.0 0.0 0.0 529.1772105638412 0.0 0.0 0.0 529.1772105638412" Properties=species:S:1:pos:R:3:forces_component_raw:R:3 ipi_comment="Step:         360  Bead:       0 forces_component_raw{ase}  cell{ase}" pbc="T T T"
O        0.00000000       0.00000000       0.00000000      -1.13711279       1.01830036       1.83979346
H        0.00000000       0.00000000       0.00000000      -0.36931897      -0.60372143       0.02236669
H        0.00000000       0.00000000       0.00000000       1.57449010       0.15151761      -1.59521549
O        0.00000000       0.00000000       0.00000000       0.34561576      -1.11067450      -0.91391630
H        0.00000000       0.00000000       0.00000000      -0.36055466      -0.17166172       0.39397683
H        0.00000000       0.00000000       0.00000000       0.05637685      -0.17464608       0.62985801
H        0.00000000       0.00000000       0.00000000      -0.10949629       0.89088576      -0.37686319
7
Lattice="529.1772105638412 0.0 0.0 0.0 529.1772105638412 0.0 0.0 0.0 529.1772105638412" Properties=species:S:1:pos:R:3:forces_component_raw:R:3 ipi_comment="Step:         380  Bead:       0 forces_component_raw{ase}  cell{ase}" pbc="T T T"
O        0.00000000       0.00000000       0.00000000      -0.73124659       0.45831274       1.17435976
H        0.00000000       0.00000000       0.00000000      -0.24795580      -0.41766916      -0.05003689
H        0.00000000       0.00000000       0.00000000       0.69541343       0.25099243      -0.67576685
O        0.00000000       0.00000000       0.00000000      -0.17867251      -0.78010077      -0.45026389
H        0.00000000       0.00000000       0.00000000       0.29312305      -0.09901244      -0.42483501
H        0.00000000       0.00000000       0.00000000       0.15073409       0.10971222       0.64269943
H        0.00000000       0.00000000       0.00000000       0.01860433       0.47776497      -0.21615656
7
Lattice="529.1772105638412 0.0 0.0 0.0 529.1772105638412 0.0 0.0 0.0 529.1772105638412" Properties=species:S:1:pos:R:3:forces_component_raw:R:3 ipi_comment="Step:         400  Bead:       0 forces_component_raw{ase}  cell{ase}" pbc="T T T"
O        0.00000000       0.00000000       0.00000000       0.51614010       0.04486572      -0.66499440
H        0.00000000       0.00000000       0.00000000      -0.05128342      -0.13569467      -0.04674368
H        0.00000000       0.00000000       0.00000000      -0.41135655      -0.13004856       0.38271718
O        0.00000000       0.00000000       0.00000000      -0.65327316       0.24407064      -0.26766869
H        0.00000000       0.00000000       0.00000000       0.16873197      -0.19096250       0.07842479
H        0.00000000       0.00000000       0.00000000       0.41424422      -0.00572886       0.44444080
H        0.00000000       0.00000000       0.00000000       0.01679685       0.17349824       0.07382401
7
Lattice="529.1772105638412 0.0 0.0 0.0 529.1772105638412 0.0 0.0 0.0 529.1772105638412" Properties=species:S:1:pos:R:3:forces_component_raw:R:3 ipi_comment="Step:         420  Bead:       0 forces_component_raw{ase}  cell{ase}" pbc="T T T"
O        0.00000000       0.00000000       0.00000000       1.96696006      -0.05250397      -2.35221581
H        0.00000000       0.00000000       0.00000000       0.29371100       0.23673507      -0.15349768
H        0.00000000       0.00000000       0.00000000      -1.84532162      -0.55654148       2.01766988
O        0.00000000       0.00000000       0.00000000      -0.03673080       1.20449520       0.81215819
H        0.00000000       0.00000000       0.00000000      -0.43983862      -0.23441871      -0.49210163
H        0.00000000       0.00000000       0.00000000       0.11834507      -0.11252770       0.17889834
H        0.00000000       0.00000000       0.00000000      -0.05712510      -0.48523841      -0.01091130
7
Lattice="529.1772105638412 0.0 0.0 0.0 529.1772105638412 0.0 0.0 0.0 529.1772105638412" Properties=species:S:1:pos:R:3:forces_component_raw:R:3 ipi_comment="Step:         440  Bead:       0 forces_component_raw{ase}  cell{ase}" pbc="T T T"
O        0.00000000       0.00000000       0.00000000       1.84438638      -0.72889386      -3.20618883
H        0.00000000       0.00000000       0.00000000       0.47598579       0.81589695       0.10451471
H        0.00000000       0.00000000       0.00000000      -2.22023070      -0.59336510       2.68112688
O        0.00000000       0.00000000       0.00000000      -0.48207709       1.17653080       0.33673343
H        0.00000000       0.00000000       0.00000000       0.28004532      -0.09968426       0.01236240
H        0.00000000       0.00000000       0.00000000      -0.16624672       0.10916510      -0.46044121
H        0.00000000       0.00000000       0.00000000       0.26813703      -0.67964963       0.53189262
7
Lattice="529.1772105638412 0.0 0.0 0.0 529.1772105638412 0.0 0.0 0.0 529.1772105638412" Properties=species:S:1:pos:R:3:forces_component_raw:R:3 ipi_comment="Step:         460  Bead:       0 forces_component_raw{ase}  cell{ase}" pbc="T T T"
O        0.00000000       0.00000000       0.00000000       0.71428072      -0.51128428      -1.78713619
H        0.00000000       0.00000000       0.00000000       0.91550452       1.17933962      -0.09443349
H        0.00000000       0.00000000       0.00000000      -1.59495036      -0.86447457       1.83312284
O        0.00000000       0.00000000       0.00000000       0.65942932       1.10258392       0.81891591
H        0.00000000       0.00000000       0.00000000      -0.17917371       0.08591103      -0.35856770
H        0.00000000       0.00000000       0.00000000      -0.64360175      -0.13682572      -0.47671744
H        0.00000000       0.00000000       0.00000000       0.12851126      -0.85525001       0.06481607
7
Lattice="529.1772105638412 0.0 0.0 0.0 529.1772105638412 0.0 0.0 0.0 529.1772105638412" Properties=species:S:1:pos:R:3:forces_component_raw:R:3 ipi_comment="Step:         480  Bead:       0 forces_component_raw{ase}  cell{ase}" pbc="T T T"
O        0.00000000       0.00000000       0.00000000      -0.35955341      -0.61938321      -1.02779161
H        0.00000000       0.00000000       0.00000000       0.60155771       1.04095181       0.42894613
H        0.00000000       0.00000000       0.00000000      -0.34757000      -0.05447229       0.74113167
O        0.00000000       0.00000000       0.00000000       0.53528767       0.19302375      -0.25805039
H        0.00000000       0.00000000       0.00000000      -0.05317121      -0.17588942       0.43012896
H        0.00000000       0.00000000       0.00000000      -0.74852629       0.08305841      -0.75938009
H        0.00000000       0.00000000       0.00000000       0.37197553      -0.46728905       0.44501533
7
Lattice="529.1772105638412 0.0 0.0 0.0 529.1772105638412 0.0 0.0 0.0 529.1772105638412" Properties=species:S:1:pos:R:3:forces_component_raw:R:3 ipi_comment="Step:         500  Bead:       0 forces_component_raw{ase}  cell{ase}" pbc="T T T"
O        0.00000000       0.00000000       0.00000000      -1.38764166       0.06117092       1.90414994
H        0.00000000       0.00000000       0.00000000       0.49854618       0.26983773      -0.19431404
H        0.00000000       0.00000000       0.00000000       0.42406696       0.20633495      -1.02930816
O        0.00000000       0.00000000       0.00000000       0.54567996       0.45398701       0.59560718
H        0.00000000       0.00000000       0.00000000       0.35268840      -0.22358286      -0.48130053
H        0.00000000       0.00000000       0.00000000      -0.52634206      -0.32350888      -0.64163164
H        0.00000000       0.00000000       0.00000000       0.09300222      -0.44423888      -0.15320275
7
Lattice="529.1772105638412 0.0 0.0 0.0 529.1772105638412 0.0 0.0 0.0 529.1772105638412" Properties=species:S:1:pos:R:3:forces_component_raw:R:3 ipi_comment="Step:         520  Bead:       0 forces_component_raw{ase}  cell{ase}" pbc="T T T"
O        0.00000000       0.00000000       0.00000000      -0.04944835      -0.62985303       1.27694552
H        0.00000000       0.00000000       0.00000000      -0.37832247      -0.08494088       0.14419761
H        0.00000000       0.00000000       0.00000000       0.63124336       0.55377449      -1.81735325
O        0.00000000       0.00000000       0.00000000       0.63616473      -0.50068975      -0.28818842
H        0.00000000       0.00000000       0.00000000      -0.37983194       0.19164015       0.46283133
H        0.00000000       0.00000000       0.00000000      -0.36351185       0.23828361       0.05657725
H        0.00000000       0.00000000       0.00000000      -0.09629348       0.23178540       0.16498996
7
Lattice="529.1772105638412 0.0 0.0 0.0 529.1772105638412 0.0 0.0 0.0 529.1772105638412" Properties=species:S:1:pos:R:3:forces_component_raw:R:3 ipi_comment="Step:         540  Bead:       0 forces_component_raw{ase}  cell{ase}" pbc="T T T"
O        0.00000000       0.00000000       0.00000000       0.82239006      -1.08309526       1.52767285
H        0.00000000       0.00000000       0.00000000      -1.07612552      -0.53886804      -0.28491542
H        0.00000000       0.00000000       0.00000000       0.29322846       0.85089547      -1.90664502
O        0.00000000       0.00000000       0.00000000      -0.47008708       0.35046336       0.17089423
H        0.00000000       0.00000000       0.00000000       0.39369443       0.29825100       0.18554750
H        0.00000000       0.00000000       0.00000000       0.56320821      -0.15397443       0.29308857
H        0.00000000       0.00000000       0.00000000      -0.52630856       0.27632790       0.01435729
7
Lattice="529.1772105638412 0.0 0.0 0.0 529.1772105638412 0.0 0.0 0.0 529.1772105638412" Properties=species:S:1:pos:R:3:forces_component_raw:R:3 ipi_comment="Step:         560  Bead:       0 forces_component_raw{ase}  cell{ase}" pbc="T T T"
O        0.00000000       0.00000000       0.00000000       0.99691068      -0.30340799       1.55261706
H        0.00000000       0.00000000       0.00000000      -1.47854773      -1.05479694      -0.05625979
H        0.00000000       0.00000000       0.00000000       0.74753432       1.05458641      -1.98441145
O        0.00000000       0.00000000       0.00000000      -0.60119436      -1.34745810      -0.80634793
H        0.00000000       0.00000000       0.00000000      -0.14902929      -0.10404542       0.14617298
H        0.00000000       0.00000000       0.00000000       0.56757772       0.88669572       0.68637723
H        0.00000000       0.00000000       0.00000000      -0.08325133       0.86842631       0.46185190
7
Lattice="529.1772105638412 0.0 0.0 0.0 529.1772105638412 0.0 0.0 0.0 529.1772105638412" Properties=species:S:1:pos:R:3:forces_component_raw:R:3 ipi_comment="Step:         580  Bead:       0 forces_component_raw{ase}  cell{ase}" pbc="T T T"
O        0.00000000       0.00000000       0.00000000       0.32362915       0.66511180       1.97078947
H        0.00000000       0.00000000       0.00000000      -0.99276998      -1.53478260      -0.69030380
H        0.00000000       0.00000000       0.00000000       0.63053413       0.65045845      -1.56436153
O        0.00000000       0.00000000       0.00000000      -0.39891574      -0.08789478      -0.05378044
H        0.00000000       0.00000000       0.00000000       0.06416505      -0.06531279       0.03348955
H        0.00000000       0.00000000       0.00000000       1.39748238       0.09299734       0.69428963
H        0.00000000       0.00000000       0.00000000      -1.02412499       0.27942258      -0.39012287
7
Lattice="529.1772105638412 0.0 0.0 0.0 529.1772105638412 0.0 0.0 0.0 529.1772105638412" Properties=species:S:1:pos:R:3:forces_component_raw:R:3 ipi_comment="Step:         600  Bead:       0 forces_component_raw{ase}  cell{ase}" pbc="T T T"
O        0.00000000       0.00000000       0.00000000      -0.11115455       1.58313627       1.72155064
H        0.00000000       0.00000000       0.00000000      -0.56304997      -1.69046846      -0.63352462
H        0.00000000       0.00000000       0.00000000       0.46099254       0.30932580      -0.77298764
O        0.00000000       0.00000000       0.00000000      -0.17323686      -2.17580130      -0.89937184