7
Lattice="529.1772105638412 0.0 0.0 0.0 529.1772105638412 0.0 0.0 0.0 529.1772105638412" Properties=species:S:1:pos:R:3:forces_component_raw:R:3 ipi_comment="Step:           0  Bead:       0 forces_component_raw{ase}  cell{ase}" pbc="T T T"
O        0.00000000       0.00000000       0.00000000      -1.24502143      -1.12765972      -0.93264926
H        0.00000000       0.00000000       0.00000000       2.03314334       1.66360344       1.44322488
H        0.00000000       0.00000000       0.00000000      -0.78476838       0.53223230       0.33430950
O        0.00000000       0.00000000       0.00000000       0.01964449      -0.33698411      -0.11189132
H        0.00000000       0.00000000       0.00000000      -0.06902105      -0.58276985      -0.50239871
H        0.00000000       0.00000000       0.00000000       0.37960948       0.04754271      -0.12147177
H        0.00000000       0.00000000       0.00000000      -0.33358646      -0.19596478      -0.10912333
7
Lattice="529.1772105638412 0.0 0.0 0.0 529.1772105638412 0.0 0.0 0.0 529.1772105638412" Properties=species:S:1:pos:R:3:forces_component_raw:R:3 ipi_comment="Step:          20  Bead:       0 forces_component_raw{ase}  cell{ase}" pbc="T T T"
O        0.00000000       0.00000000       0.00000000       0.84036805      -1.36323339      -1.95372293
H        0.00000000       0.00000000       0.00000000       0.97098930       0.63029971       0.69922506
H        0.00000000       0.00000000       0.00000000      -1.89624732       0.55707805       0.96624489
O        0.00000000       0.00000000       0.00000000      -0.63786846       0.44543285       0.69296684
H        0.00000000       0.00000000       0.00000000       0.52112702       0.10864626       0.25977176
H        0.00000000       0.00000000       0.00000000       0.78880818       0.16081044      -0.37588143
H        0.00000000       0.00000000       0.00000000      -0.58717677      -0.53903392      -0.28860420
7
Lattice="529.1772105638412 0.0 0.0 0.0 529.1772105638412 0.0 0.0 0.0 529.1772105638412" Properties=species:S:1:pos:R:3:forces_component_raw:R:3 ipi_comment="Step:          40  Bead:       0 forces_component_raw{ase}  cell{ase}" pbc="T T T"
O        0.00000000       0.00000000       0.00000000       0.89649008      -0.22980456      -0.30321799
H        0.00000000       0.00000000       0.00000000       0.26432208       0.01968161      -0.13323069
H        0.00000000       0.00000000       0.00000000      -0.93708256      -0.11470012       0.24714935
O        0.00000000       0.00000000       0.00000000      -0.26930899       0.67535397       0.63987516
H        0.00000000       0.00000000       0.00000000      -0.44834585       0.12143410       0.07060084
H        0.00000000       0.00000000       0.00000000       0.48883832      -0.31332669      -0.44097582
H        0.00000000       0.00000000       0.00000000       0.00508692      -0.15863829      -0.08020084
7
Lattice="529.1772105638412 0.0 0.0 0.0 529.1772105638412 0.0 0.0 0.0 529.1772105638412" Properties=species:S:1:pos:R:3:forces_component_raw:R:3 ipi_comment="Step:          60  Bead:       0 forces_component_raw{ase}  cell{ase}" pbc="T T T"
O        0.00000000       0.00000000       0.00000000       0.62152674      -0.21642426       0.22728165
H        0.00000000       0.00000000       0.00000000      -0.96836119      -0.71421720      -0.76688350
H        0.00000000       0.00000000       0.00000000       0.18161573       0.43215290       0.34696360
O        0.00000000       0.00000000       0.00000000      -1.44609011      -0.44007010       0.79494794
H        0.00000000       0.00000000       0.00000000       0.22835369       0.19576540      -0.13949878
H        0.00000000       0.00000000       0.00000000       1.04030617      -0.01406304      -0.50184219
H        0.00000000       0.00000000       0.00000000       0.34264897       0.75685630       0.03903129
7
Lattice="529.1772105638412 0.0 0.0 0.0 529.1772105638412 0.0 0.0 0.0 529.1772105638412" Properties=species:S:1:pos:R:3:forces_component_raw:R:3 ipi_comment="Step:          80  Bead:       0 forces_component_raw{ase}  cell{ase}" pbc="T T T"
O        0.00000000       0.00000000       0.00000000       0.64364906       0.14741228       1.91456392
H        0.00000000       0.00000000       0.00000000      -1.14635067      -0.58429125      -1.59602337
H        0.00000000       0.00000000       0.00000000       0.76347327       0.29268230      -0.62953593
O        0.00000000       0.00000000       0.00000000      -0.56099551      -0.92029007       0.29591369
H        0.00000000       0.00000000       0.00000000      -0.33856533      -0.13832747       0.28397011
H        0.00000000       0.00000000       0.00000000       0.29191863       0.17371700      -0.08675134
H        0.00000000       0.00000000       0.00000000       0.34687056       1.02909720      -0.18213708
7
Lattice="529.1772105638412 0.0 0.0 0.0 529.1772105638412 0.0 0.0 0.0 529.1772105638412" Properties=species:S:1:pos:R:3:forces_component_raw:R:3 ipi_comment="Step:         100  Bead:       0 forces_component_raw{ase}  cell{ase}" pbc="T T T"
O        0.00000000       0.00000000       0.00000000       0.98473065      -0.28535886       2.48471086
H        0.00000000       0.00000000       0.00000000      -2.01208270      -0.02008046      -1.51905319
H        0.00000000       0.00000000       0.00000000       1.13303441       0.56751734      -0.61584984
O        0.00000000       0.00000000       0.00000000      -0.22580968      -1.54266802       0.30605386
H        0.00000000       0.00000000       0.00000000      -0.32855224       0.38864644       0.12749372
H        0.00000000       0.00000000       0.00000000      -0.69361307      -0.46649452       0.27054494
H        0.00000000       0.00000000       0.00000000       1.14229263       1.35843807      -1.05390035
7
Lattice="529.1772105638412 0.0 0.0 0.0 529.1772105638412 0.0 0.0 0.0 529.1772105638412" Properties=species:S:1:pos:R:3:forces_component_raw:R:3 ipi_comment="Step:         120  Bead:       0 forces_component_raw{ase}  cell{ase}" pbc="T T T"
O        0.00000000       0.00000000       0.00000000       0.28657511       0.47313813       2.43398730
H        0.00000000       0.00000000       0.00000000      -2.14865577      -0.19257289      -1.47256281
H        0.00000000       0.00000000       0.00000000       1.56097015       0.18744294      -0.68554078
O        0.00000000       0.00000000       0.00000000       1.59341361      -2.33661554       0.46161199
H        0.00000000       0.00000000       0.00000000       0.36940434      -0.53026556      -0.16233407
H        0.00000000       0.00000000       0.00000000      -1.34311158       0.33538475      -0.10637940
H        0.00000000       0.00000000       0.00000000      -0.31859586       2.06348817      -0.46878223
7
Lattice="529.1772105638412 0.0 0.0 0.0 529.1772105638412 0.0 0.0 0.0 529.1772105638412" Properties=species:S:1:pos:R:3:forces_component_raw:R:3 ipi_comment="Step:         140  Bead:       0 forces_component_raw{ase}  cell{ase}" pbc="T T T"
O        0.00000000       0.00000000       0.00000000      -0.26072088      -0.28194890       1.85577925
H        0.00000000       0.00000000       0.00000000      -1.62574688      -0.13080566      -1.26133936
H        0.00000000       0.00000000       0.00000000       1.95256066      -0.18793833      -0.79215345
O        0.00000000       0.00000000       0.00000000      -0.20969890       0.23065453       0.52708069
H        0.00000000       0.00000000       0.00000000       0.04752410       0.08434644      -0.17139956
H        0.00000000       0.00000000       0.00000000      -0.52972313      -0.88513372      -0.13319222
H        0.00000000       0.00000000       0.00000000       0.62580504       1.17082564      -0.02477535
7
Lattice="529.1772105638412 0.0 0.0 0.0 529.1772105638412 0.0 0.0 0.0 529.1772105638412" Properties=species:S:1:pos:R:3:forces_component_raw:R:3 ipi_comment="Step:         160  Bead:       0 forces_component_raw{ase}  cell{ase}" pbc="T T T"
O        0.00000000       0.00000000       0.00000000      -0.82546395       0.49082796       1.98309872
H        0.00000000       0.00000000       0.00000000      -0.71214542      -0.36445608      -1.28738558
H        0.00000000       0.00000000       0.00000000       1.58405678      -0.57248839      -0.71939009
O        0.00000000       0.00000000       0.00000000       0.57171198      -0.96163037      -0.68972514
H        0.00000000       0.00000000       0.00000000      -0.17735073       0.70080458       0.30623868
H        0.00000000       0.00000000       0.00000000      -0.12381516       0.20230987       0.06393594
H        0.00000000       0.00000000       0.00000000      -0.31699350       0.50463243       0.34322747
7
Lattice="529.1772105638412 0.0 0.0 0.0 529.1772105638412 0.0 0.0 0.0 529.1772105638412" Properties=species:S:1:pos:R:3:forces_component_raw:R:3 ipi_comment="Step:         180  Bead:       0 forces_component_raw{ase}  cell{ase}" pbc="T T T"
O        0.00000000       0.00000000       0.00000000      -0.90760623       0.04274252      -0.16021221
H        0.00000000       0.00000000       0.00000000      -0.35471623      -0.12539169      -0.39346471
H        0.00000000       0.00000000       0.00000000       1.19570326      -0.38522956       0.22155181
O        0.00000000       0.00000000       0.00000000      -1.30215116       0.81243898       0.75392203
H        0.00000000       0.00000000       0.00000000       0.23974151      -0.04332307       0.00924280
H        0.00000000       0.00000000       0.00000000       0.78543163      -0.42421085      -0.36946438
H        0.00000000       0.00000000       0.00000000       0.34359722       0.12297367      -0.06157534
7
Lattice="529.1772105638412 0.0 0.0 0.0 529.1772105638412 0.0 0.0 0.0 529.1772105638412" Properties=species:S:1:pos:R:3:forces_component_raw:R:3 ipi_comment="Step:         200  Bead:       0 forces_component_raw{ase}  cell{ase}" pbc="T T T"
O        0.00000000       0.00000000       0.00000000      -1.21685888       0.86590389      -1.28507254
H        0.00000000       0.00000000       0.00000000       0.30212792       0.21697915       1.26136268
H        0.00000000       0.00000000       0.00000000       0.84853841      -0.46958375       0.29490731
O        0.00000000       0.00000000       0.00000000      -0.15539717      -0.36821307      -0.23261284
H        0.00000000       0.00000000       0.00000000      -0.19857080      -0.34295720       0.12344775
H        0.00000000       0.00000000       0.00000000       0.86108864       0.30630783      -0.45256761
H        0.00000000       0.00000000       0.00000000      -0.44092811      -0.20843684       0.29053525
7
Lattice="529.1772105638412 0.0 0.0 0.0 529.1772105638412 0.0 0.0 0.0 529.1772105638412" Properties=species:S:1:pos:R:3:forces_component_raw:R:3 ipi_comment="Step:         220  Bead:       0 forces_component_raw{ase}  cell{ase}" pbc="T T T"
O        0.00000000       0.00000000       0.00000000       0.14440195       0.30424970      -1.66903115
H        0.00000000       0.00000000       0.00000000       0.15649477       0.13142362       2.41476431
H        0.00000000       0.00000000       0.00000000      -0.42112216       0.31251527      -0.28007657
O        0.00000000       0.00000000       0.00000000      -0.31399354       0.84473758      -0.58618198
H        0.00000000       0.00000000       0.00000000      -0.14339219       0.46117247      -0.06752094
H        0.00000000       0.00000000       0.00000000       0.56108208      -0.34967603      -0.05184239
H        0.00000000       0.00000000       0.00000000       0.01652909      -1.70442262       0.23988871
7
Lattice="529.1772105638412 0.0 0.0 0.0 529.1772105638412 0.0 0.0 0.0 529.1772105638412" Properties=species:S:1:pos:R:3:forces_component_raw:R:3 ipi_comment="Step:         240  Bead:       0 forces_component_raw{ase}  cell{ase}" pbc="T T T"
O        0.00000000       0.00000000       0.00000000       2.33772376      -0.42825500      -2.05245327
H        0.00000000       0.00000000       0.00000000      -0.71487889      -0.15211601       3.19045852
H        0.00000000       0.00000000       0.00000000      -1.62784256       1.12836295      -0.91741709
O        0.00000000       0.00000000       0.00000000       0.50837605       1.16562993      -0.66962847
H        0.00000000       0.00000000       0.00000000      -0.23255865      -0.37777894      -0.18242091
H        0.00000000       0.00000000       0.00000000       0.46102830       0.42674291      -0.33840079
H        0.00000000       0.00000000       0.00000000      -0.73184801      -1.76258584       0.96986200
7
Lattice="529.1772105638412 0.0 0.0 0.0 529.1772105638412 0.0 0.0 0.0 529.1772105638412" Properties=species:S:1:pos:R:3:forces_component_raw:R:3 ipi_comment="Step:         260  Bead:       0 forces_component_raw{ase}  cell{ase}" pbc="T T T"
O        0.00000000       0.00000000       0.00000000       2.76874446      -1.85342947      -0.24439410
H        0.00000000       0.00000000       0.00000000      -0.41354236      -0.50240126       2.01175821
H        0.00000000       0.00000000       0.00000000      -2.29714717       1.78185824      -2.09537423
O        0.00000000       0.00000000       0.00000000      -0.61361778       2.99527793      -0.13541071
H        0.00000000       0.00000000       0.00000000       0.24950361       0.12382171      -0.30145124
H        0.00000000       0.00000000       0.00000000       0.23654532      -0.38472956       0.05438735
H        0.00000000       0.00000000       0.00000000       0.06951392      -2.16039758       0.71048473
7
Lattice="529.1772105638412 0.0 0.0 0.0 529.1772105638412 0.0 0.0 0.0 529.1772105638412" Properties=species:S:1:pos:R:3:forces_component_raw:R:3 ipi_comment="Step:         280  Bead:       0 forces_component_raw{ase}  cell{ase}" pbc="T T T"
O        0.00000000       0.00000000       0.00000000       2.08241080      -2.15199926       0.32347996
H        0.00000000       0.00000000       0.00000000      -0.25434214       0.12955546       0.38937642
H        0.00000000       0.00000000       0.00000000      -1.77844531       1.37375000      -1.08373656
O        0.00000000       0.00000000       0.00000000      -0.23571588       0.40122779      -0.41024806
H        0.00000000       0.00000000       0.00000000      -0.33678377       0.40945416       0.64151443
H        0.00000000       0.00000000       0.00000000       1.16046438       0.46961649      -0.44937430
H        0.00000000       0.00000000       0.00000000      -0.63758808      -0.63160465       0.58898811
7
Lattice="529.1772105638412 0.0 0.0 0.0 529.1772105638412 0.0 0.0 0.0 529.1772105638412" Properties=species:S:1:pos:R:3:forces_component_raw:R:3 ipi_comment="Step:         300  Bead:       0 forces_component_raw{ase}  cell{ase}" pbc="T T T"
O        0.00000000       0.00000000       0.00000000       0.91165992      -1.82954548       1.00059506
H        0.00000000       0.00000000       0.00000000       0.23332842       0.07744829      -0.35266724
H        0.00000000       0.00000000       0.00000000      -1.07002554       0.98983730      -0.95299915
O        0.00000000       0.00000000       0.00000000      -1.88919391       0.63234879       0.89016587
H        0.00000000       0.00000000       0.00000000       0.28164846       0.07851757      -0.19222735
H        0.00000000       0.00000000       0.00000000       1.19963576      -0.20258060      -0.23400279
H        0.00000000       0.00000000       0.00000000       0.33294690       0.25397415      -0.15886440
7
Lattice="529.1772105638412 0.0 0.0 0.0 529.1772105638412 0.0 0.0 0.0 529.1772105638412" Properties=species:S:1:pos:R:3:forces_component_raw:R:3 ipi_comment="Step:         320  Bead:       0 forces_component_raw{ase}  cell{ase}" pbc="T T T"
O        0.00000000       0.00000000       0.00000000       0.35147323      -0.74510521       0.76502682
H        0.00000000       0.00000000       0.00000000       0.09538773       0.28741723      -0.92468869
H        0.00000000       0.00000000       0.00000000      -0.45373184       0.42932021       0.01502980
O        0.00000000       0.00000000       0.00000000      -0.29015589      -1.85795805       0.79445824
H        0.00000000       0.00000000       0.00000000       0.10479978      -0.09486706       0.10873011
H        0.00000000       0.00000000       0.00000000       0.69058483       0.59662402      -0.36672065
H        0.00000000       0.00000000       0.00000000      -0.49835783       1.38456886      -0.39183563
7
Lattice="529.1772105638412 0.0 0.0 0.0 529.1772105638412 0.0 0.0 0.0 529.1772105638412" Properties=species:S:1:pos:R:3:forces_component_raw:R:3 ipi_comment="Step:         340  Bead:       0 forces_component_raw{ase}  cell{ase}" pbc="T T T"
O        0.00000000       0.00000000       0.00000000      -0.89077488       1.95228437      -0.15778779
H        0.00000000       0.00000000       0.00000000       0.21326372      -0.17624364      -0.20866568
H        0.00000000       0.00000000       0.00000000       0.65989333      -1.46257832       0.63828253
O        0.00000000       0.00000000       0.00000000      -0.74290582      -0.69525186       0.47051429
H        0.00000000       0.00000000       0.00000000      -0.28207209       0.24309461      -0.09879476
H        0.00000000       0.00000000       0.00000000       0.04936038      -0.66622000       0.11122990
H        0.00000000       0.00000000       0.00000000       0.99323536       0.80491484      -0.75477850
7
Lattice="529.1772105638412 0.0 0.0 0.0 529.1772105638412 0.0 0.0 0.0 529.1772105638412" Properties=species:S:1:pos:R:3:forces_component_raw:R:3 ipi_comment="Step:         360  Bead:       0 forces_component_raw{ase}  cell{ase}" pbc="T T T"
O        0.00000000       0.00000000       0.00000000       0.37209674       1.67929947      -1.61115342
H        0.00000000       0.00000000       0.00000000      -0.08270965       0.02241960       0.20615388
H        0.00000000       0.00000000       0.00000000      -0.15108723      -1.47312642       1.31183332
O        0.00000000       0.00000000       0.00000000       1.17218721      -1.53852094      -0.87885055
H        0.00000000       0.00000000       0.00000000      -0.21224536       0.00889448       0.07880323
H        0.00000000       0.00000000       0.00000000      -1.05416017       0.46878688       0.81889179
H        0.00000000       0.00000000       0.00000000      -0.04408155       0.83224693       0.07432176
7
Lattice="529.1772105638412 0.0 0.0 0.0 529.1772105638412 0.0 0.0 0.0 529.1772105638412" Properties=species:S:1:pos:R:3:forces_component_raw:R:3 ipi_comment="Step:         380  Bead:       0 forces_component_raw{ase}  cell{ase}" pbc="T T T"
O        0.00000000       0.00000000       0.00000000       0.16921726       2.21535695      -0.87624116
H        0.00000000       0.00000000       0.00000000      -0.04153774      -0.24024277       0.38845773
H        0.00000000       0.00000000       0.00000000      -0.33131333      -1.73747795       0.62045674
O        0.00000000       0.00000000       0.00000000       0.37678672      -0.02531216      -0.16897994
H        0.00000000       0.00000000       0.00000000       0.50015664      -0.43221122      -0.53517525
H        0.00000000       0.00000000       0.00000000      -1.22789586      -0.44301657       0.92908983
H        0.00000000       0.00000000       0.00000000       0.55458632       0.66290373      -0.35760795
7
Lattice="529.1772105638412 0.0 0.0 0.0 529.1772105638412 0.0 0.0 0.0 529.1772105638412" Properties=species:S:1:pos:R:3:forces_component_raw:R:3 ipi_comment="Step:         400  Bead:       0 forces_component_raw{ase}  cell{ase}" pbc="T T T"
O        0.00000000       0.00000000       0.00000000       0.54359328      -0.51667718      -0.89290313
H        0.00000000       0.00000000       0.00000000       0.04963276       0.25800535      -0.12413750
H        0.00000000       0.00000000       0.00000000      -0.19483568      -0.74705513       0.26937786
O        0.00000000       0.00000000       0.00000000       0.72106332       0.82905990      -0.34533883
H        0.00000000       0.00000000       0.00000000      -0.12524809       0.06398898       0.31750544
H        0.00000000       0.00000000       0.00000000      -0.77790740       0.10571092       0.57313880
H        0.00000000       0.00000000       0.00000000      -0.21629819       0.00696716       0.20235736
7
Lattice="529.1772105638412 0.0 0.0 0.0 529.1772105638412 0.0 0.0 0.0 529.1772105638412" Properties=species:S:1:pos:R:3:forces_component_raw:R:3 ipi_comment="Step:         420  Bead:       0 forces_component_raw{ase}  cell{ase}" pbc="T T T"
O        0.00000000       0.00000000       0.00000000       0.63880494      -1.09968423       0.67420950
H        0.00000000       0.00000000       0.00000000      -0.42663700       0.37862312      -0.55730568
H        0.00000000       0.00000000       0.00000000       0.09729425       0.19845447      -0.33930264
O        0.00000000       0.00000000       0.00000000       0.28792357       1.46978967       0.09100179
H        0.00000000       0.00000000       0.00000000      -0.19481083      -0.06113932       0.05608760
H        0.00000000       0.00000000       0.00000000      -0.12824997      -0.09017111       0.06865434
H        0.00000000       0.00000000       0.00000000      -0.27432495      -0.79587260       0.00665509
7
Lattice="529.1772105638412 0.0 0.0 0.0 529.1772105638412 0.0 0.0 0.0 529.1772105638412" Properties=species:S:1:pos:R:3:forces_component_raw:R:3 ipi_comment="Step:         440  Bead:       0 forces_component_raw{ase}  cell{ase}" pbc="T T T"
O        0.00000000       0.00000000       0.00000000      -0.77692358      -1.26874253       0.05498344
H        0.00000000       0.00000000       0.00000000      -0.11889438       0.52164499       0.00985634
H        0.00000000       0.00000000       0.00000000       0.80506166       1.12080087       0.21813931
O        0.00000000       0.00000000       0.00000000      -0.07015141       1.26075038      -0.10585611
H        0.00000000       0.00000000       0.00000000       0.15663771       0.13852636       0.21603193
H        0.00000000       0.00000000       0.00000000       1.00108425       0.13344563      -0.60524836
H        0.00000000       0.00000000       0.00000000      -0.99681424      -1.90642569       0.21209345
7
Lattice="529.1772105638412 0.0 0.0 0.0 529.1772105638412 0.0 0.0 0.0 529.1772105638412" Properties=species:S:1:pos:R:3:forces_component_raw:R:3 ipi_comment="Step:         460  Bead:       0 forces_component_raw{ase}  cell{ase}" pbc="T T T"
O        0.00000000       0.00000000       0.00000000      -0.94144954      -0.30830346       0.89254263
H        0.00000000       0.00000000       0.00000000      -0.29907061      -0.11265289      -0.12094734
H        0.00000000       0.00000000       0.00000000       1.08537763       1.43197440      -0.10893306
O        0.00000000       0.00000000       0.00000000      -1.69365196       0.88805064       0.87259110
H        0.00000000       0.00000000       0.00000000       0.04315331      -0.40774422      -0.23574012
H        0.00000000       0.00000000       0.00000000       2.18376441      -0.24266800      -1.20194214
H        0.00000000       0.00000000       0.00000000      -0.37812324      -1.24865647      -0.09757107
7
Lattice="529.1772105638412 0.0 0.0 0.0 529.1772105638412 0.0 0.0 0.0 529.1772105638412" Properties=species:S:1:pos:R:3:forces_component_raw:R:3 ipi_comment="Step:         480  Bead:       0 forces_component_raw{ase}  cell{ase}" pbc="T T T"
O        0.00000000       0.00000000       0.00000000       0.19206458      -0.51890635      -0.69240488
H        0.00000000       0.00000000       0.00000000      -0.22965097      -0.00873544       0.74727356
H        0.00000000       0.00000000       0.00000000       0.07242842       0.16229311       0.10496167
O        0.00000000       0.00000000       0.00000000      -2.29514125      -0.13485805       1.24747712
H        0.00000000       0.00000000       0.00000000      -0.08954970       0.49851321      -0.31769962
H        0.00000000       0.00000000       0.00000000       2.66626468       0.25663701      -1.26699106
H        0.00000000       0.00000000       0.00000000      -0.31641575      -0.25494350       0.17738320
7
Lattice="529.1772105638412 0.0 0.0 0.0 529.1772105638412 0.0 0.0 0.0 529.1772105638412" Properties=species:S:1:pos:R:3:forces_component_raw:R:3 ipi_comment="Step:         500  Bead:       0 forces_component_raw{ase}  cell{ase}" pbc="T T T"
O        0.00000000       0.00000000       0.00000000       1.45644011       0.40808282      -2.05389711
H        0.00000000       0.00000000       0.00000000      -1.09900731      -0.22534400       1.65371776
H        0.00000000       0.00000000       0.00000000      -0.34295679      -0.81879535      -0.07727896
O        0.00000000       0.00000000       0.00000000      -1.80143445       0.83651566       1.30092554
H        0.00000000       0.00000000       0.00000000       0.19776456      -0.11269259      -0.06844826
H        0.00000000       0.00000000       0.00000000       1.42121819      -0.21375113      -0.78014503
H        0.00000000       0.00000000       0.00000000       0.16797568       0.12598459       0.02512605
7
Lattice="529.1772105638412 0.0 0.0 0.0 529.1772105638412 0.0 0.0 0.0 529.1772105638412" Properties=species:S:1:pos:R:3:forces_component_raw:R:3 ipi_comment="Step:         520  Bead:       0 forces_component_raw{ase}  cell{ase}" pbc="T T T"
O        0.00000000       0.00000000       0.00000000       1.44767442       0.15516056      -1.68092885
H        0.00000000       0.00000000       0.00000000      -1.14821000       0.04821204       1.13301015
H        0.00000000       0.00000000       0.00000000      -0.26768205      -0.49576984       0.15538088
O        0.00000000       0.00000000       0.00000000       0.62862313      -0.39866861      -0.73910894
H        0.00000000       0.00000000       0.00000000       0.05480378       0.40782707       0.59467382
H        0.00000000       0.00000000       0.00000000      -0.85595910       0.11310455       0.52020350
H        0.00000000       0.00000000       0.00000000       0.14074982       0.17013422       0.01676945
7
Lattice="529.1772105638412 0.0 0.0 0.0 529.1772105638412 0.0 0.0 0.0 529.1772105638412" Properties=species:S:1:pos:R:3:forces_component_raw:R:3 ipi_comment="Step:         540  Bead:       0 forces_component_raw{ase}  cell{ase}" pbc="T T T"
O        0.00000000       0.00000000       0.00000000      -0.27417212      -0.16505904       0.12973463
H        0.00000000       0.00000000       0.00000000       0.36493180      -0.42668253      -0.24114524
H        0.00000000       0.00000000       0.00000000       0.39772589       0.16455088      -0.24778435
O        0.00000000       0.00000000       0.00000000       1.15077747      -0.39197658      -0.34806451
H        0.00000000       0.00000000       0.00000000      -0.46002895      -0.04626795      -0.29180121
H        0.00000000       0.00000000       0.00000000      -1.25207128       0.80063891       1.05384766
H        0.00000000       0.00000000       0.00000000       0.07283721       0.06479631      -0.05478699
7
Lattice="529.1772105638412 0.0 0.0 0.0 529.1772105638412 0.0 0.0 0.0 529.1772105638412" Properties=species:S:1:pos:R:3:forces_component_raw:R:3 ipi_comment="Step:         560  Bead:       0 forces_component_raw{ase}  cell{ase}" pbc="T T T"
O        0.00000000       0.00000000       0.00000000      -1.30500207      -2.54263153       0.52615767
H        0.00000000       0.00000000       0.00000000       1.44443588       0.81159845      -0.31567371
H        0.00000000       0.00000000       0.00000000      -0.11592875       1.66162689      -0.34991849
O        0.00000000       0.00000000       0.00000000       2.19262389      -0.24702215      -0.49937974
H        0.00000000       0.00000000       0.00000000       0.10728067       0.13153980      -0.07311089
H        0.00000000       0.00000000       0.00000000      -2.18285542       0.92899525       0.90283498
H        0.00000000       0.00000000       0.00000000      -0.14055420      -0.74410672      -0.19090982
7
Lattice="529.1772105638412 0.0 0.0 0.0 529.1772105638412 0.0 0.0 0.0 529.1772105638412" Properties=species:S:1:pos:R:3:forces_component_raw:R:3 ipi_comment="Step:         580  Bead:       0 forces_component_raw{ase}  cell{ase}" pbc="T T T"
O        0.00000000       0.00000000       0.00000000      -2.86024642       0.02309273       1.01858317
H        0.00000000       0.00000000       0.00000000       1.98683564      -0.31516030      -0.01267105
H        0.00000000       0.00000000       0.00000000       0.62638948       1.05666607      -0.43392206
O        0.00000000       0.00000000       0.00000000       2.96030669      -1.36361214      -0.84468466
H        0.00000000       0.00000000       0.00000000      -0.13993924      -0.26941820       0.20808232
H        0.00000000       0.00000000       0.00000000      -2.25077854       0.77844383      -0.06971450
H        0.00000000       0.00000000       0.00000000      -0.32256762       0.08998800       0.13432678
7
Lattice="529.1772105638412 0.0 0.0 0.0 529.1772105638412 0.0 0.0 0.0 529.1772105638412" Properties=species:S:1:pos:R:3:forces_component_raw:R:3 ipi_comment="Step:         600  Bead:       0 forces_component_raw{ase}  cell{ase}" pbc="T T T"
O        0.00000000       0.00000000       0.00000000      -1.53167658      -0.49119638       0.72524367
H        0.00000000       0.00000000       0.00000000       1.38061954       0.63363137      -0.64512787
H        0.00000000       0.00000000       0.00000000      -0.50042879      -0.10952547       0.24454162
O        0.00000000       0.00000000       0.00000000       2.02815134       0.06613139       0.41018427