7
Lattice="529.1772105638412 0.0 0.0 0.0 529.1772105638412 0.0 0.0 0.0 529.1772105638412" Properties=species:S:1:pos:R:3 ipi_comment="Step:           0  Bead:       0 positions{ase}  cell{ase}" pbc="T T T"
O       -0.24525292       0.92704947       0.70060630
H        0.50572486       1.32109162       1.06381283
H       -1.11256270       1.27455707       0.89327293
O        0.24664311      -0.93881000      -0.68037431
H       -0.04364253       0.07101824       0.05101683
H        1.06001929      -1.02699918      -1.19234993
H       -0.43160411      -1.45300416      -1.13687519
7
Lattice="529.1772105638412 0.0 0.0 0.0 529.1772105638412 0.0 0.0 0.0 529.1772105638412" Properties=species:S:1:pos:R:3 ipi_comment="Step:          20  Bead:       0 positions{ase}  cell{ase}" pbc="T T T"
O       -0.25630982       0.95168979       0.71899774
H        0.48277496       1.35316821       1.15791130
H       -1.07087367       1.17992249       1.11500888
O        0.25892066      -0.94780083      -0.71402380
H       -0.09894742       0.00332756      -0.07384372
H        1.06084547      -1.05523366      -1.22848386
H       -0.41523865      -1.54291011      -1.04953899
7
Lattice="529.1772105638412 0.0 0.0 0.0 529.1772105638412 0.0 0.0 0.0 529.1772105638412" Properties=species:S:1:pos:R:3 ipi_comment="Step:          40  Bead:       0 positions{ase}  cell{ase}" pbc="T T T"
O       -0.26481940       0.96899077       0.73055750
H        0.38153695       1.39590478       1.32190869
H       -1.08505344       1.01547464       1.22437022
O        0.25785079      -0.94685506      -0.75460057
H        0.08655692      -0.10081129      -0.03041299
H        1.10363448      -0.99512983      -1.21369601
H       -0.37606902      -1.66677668      -0.92055764
7
Lattice="529.1772105638412 0.0 0.0 0.0 529.1772105638412 0.0 0.0 0.0 529.1772105638412" Properties=species:S:1:pos:R:3 ipi_comment="Step:          60  Bead:       0 positions{ase}  cell{ase}" pbc="T T T"
O       -0.28914014       0.97151017       0.73258118
H        0.37177002       1.38096016       1.38343822
H       -1.15427787       0.74148540       1.13948020
O        0.28045552      -0.92839019      -0.77255353
H        0.04497859       0.08166615       0.11714522
H        1.09027708      -1.09943317      -1.24628804
H       -0.21490534      -1.78907970      -0.75933342
7
Lattice="529.1772105638412 0.0 0.0 0.0 529.1772105638412 0.0 0.0 0.0 529.1772105638412" Properties=species:S:1:pos:R:3 ipi_comment="Step:          80  Bead:       0 positions{ase}  cell{ase}" pbc="T T T"
O       -0.31390173       0.95472976       0.71511094
H        0.34038329       1.26808134       1.45496253
H       -1.14987047       0.69497433       1.21252836
O        0.29294257      -0.90247468      -0.77120145
H        0.10044036       0.08882577      -0.02001461
H        1.14463761      -1.08298661      -1.20625401
H       -0.10292665      -1.79828839      -0.55095229
7
Lattice="529.1772105638412 0.0 0.0 0.0 529.1772105638412 0.0 0.0 0.0 529.1772105638412" Properties=species:S:1:pos:R:3 ipi_comment="Step:         100  Bead:       0 positions{ase}  cell{ase}" pbc="T T T"
O       -0.33171177       0.94234374       0.69713823
H        0.42098484       1.08062120       1.41502088
H       -1.16069770       0.68457314       1.22328793
O        0.29790552      -0.88226930      -0.77046771
H        0.05780148      -0.03999119      -0.06918315
H        1.25557743      -0.91098135      -1.04119618
H       -0.03709252      -1.76772462      -0.36404210
7
Lattice="529.1772105638412 0.0 0.0 0.0 529.1772105638412 0.0 0.0 0.0 529.1772105638412" Properties=species:S:1:pos:R:3 ipi_comment="Step:         120  Bead:       0 positions{ase}  cell{ase}" pbc="T T T"
O       -0.34663105       0.95150535       0.70011034
H        0.45483373       1.05132100       1.38432755
H       -1.22778677       0.85214422       1.21502145
O        0.30989873      -0.90313600      -0.77759995
H       -0.16634533       0.11776816       0.03713814
H        1.31542256      -0.89168553      -0.89384211
H        0.20689207      -1.89726722      -0.51272798
7
Lattice="529.1772105638412 0.0 0.0 0.0 529.1772105638412 0.0 0.0 0.0 529.1772105638412" Properties=species:S:1:pos:R:3 ipi_comment="Step:         140  Bead:       0 positions{ase}  cell{ase}" pbc="T T T"
O       -0.35290833       0.97059672       0.70210456
H        0.36564992       1.12355331       1.43099116
H       -1.28902958       1.06619112       1.13997773
O        0.32969710      -0.93330996      -0.76307811
H       -0.10983485      -0.16853374      -0.00349604
H        1.28525269      -0.69643353      -0.90726544
H        0.11637087      -1.91659333      -0.69243363
7
Lattice="529.1772105638412 0.0 0.0 0.0 529.1772105638412 0.0 0.0 0.0 529.1772105638412" Properties=species:S:1:pos:R:3 ipi_comment="Step:         160  Bead:       0 positions{ase}  cell{ase}" pbc="T T T"
O       -0.36234388       0.97432300       0.68638488
H        0.19706520       1.20532405       1.50075872
H       -1.31335915       1.21574218       0.98181655
O        0.34370298      -0.93870909      -0.73436863
H       -0.06434822      -0.28624945       0.01309836
H        1.28901039      -0.78255802      -0.95699504
H        0.18750065      -1.91752330      -0.77707920
7
Lattice="529.1772105638412 0.0 0.0 0.0 529.1772105638412 0.0 0.0 0.0 529.1772105638412" Properties=species:S:1:pos:R:3 ipi_comment="Step:         180  Bead:       0 positions{ase}  cell{ase}" pbc="T T T"
O       -0.36258096       0.96007707       0.68033817
H        0.08517170       1.16324750       1.53829834
H       -1.30681419       1.31028699       0.64770267
O        0.35929009      -0.94641658      -0.71709564
H       -0.09539035      -0.03665380       0.04028942
H        1.25009699      -0.76244839      -1.02848196
H        0.11916861      -1.89125182      -0.61439289
7
Lattice="529.1772105638412 0.0 0.0 0.0 529.1772105638412 0.0 0.0 0.0 529.1772105638412" Properties=species:S:1:pos:R:3 ipi_comment="Step:         200  Bead:       0 positions{ase}  cell{ase}" pbc="T T T"
O       -0.36881080       0.92385447       0.64784963
H       -0.09482003       1.04943179       1.54806637
H       -1.21979200       1.39755705       0.43214019
O        0.36030546      -0.90632683      -0.68115109
H        0.06637299       0.08181287      -0.03023353
H        1.23492702      -1.01092025      -1.06100721
H        0.14830903      -1.79608031      -0.36040416
7
Lattice="529.1772105638412 0.0 0.0 0.0 529.1772105638412 0.0 0.0 0.0 529.1772105638412" Properties=species:S:1:pos:R:3 ipi_comment="Step:         220  Bead:       0 positions{ase}  cell{ase}" pbc="T T T"
O       -0.36707609       0.91713487       0.63321423
H       -0.35165975       0.97152497       1.56129503
H       -1.12921811       1.41478120       0.32083081
O        0.37089161      -0.90087147      -0.66854885
H        0.15863155      -0.00987632      -0.04116795
H        1.22784198      -0.99307565      -1.10040636
H        0.03384424      -1.64148704      -0.17971957
7
Lattice="529.1772105638412 0.0 0.0 0.0 529.1772105638412 0.0 0.0 0.0 529.1772105638412" Properties=species:S:1:pos:R:3 ipi_comment="Step:         240  Bead:       0 positions{ase}  cell{ase}" pbc="T T T"
O       -0.37050688       0.95123428       0.63374090
H       -0.53960828       0.88984628       1.53357649
H       -1.02966575       1.40769780       0.15112499
O        0.36709397      -0.92646803      -0.66868920
H        0.11675872       0.08599958       0.07844897
H        1.27975725      -1.02970279      -0.97412377
H        0.22692776      -1.74693125      -0.23432635
7
Lattice="529.1772105638412 0.0 0.0 0.0 529.1772105638412 0.0 0.0 0.0 529.1772105638412" Properties=species:S:1:pos:R:3 ipi_comment="Step:         260  Bead:       0 positions{ase}  cell{ase}" pbc="T T T"
O       -0.36169069       1.00188061       0.64546018
H       -0.74826760       0.86741221       1.49508964
H       -1.03423805       1.43821821       0.19157692
O        0.38074439      -0.97799365      -0.68225040
H       -0.04653364      -0.04173500       0.07684283
H        1.31622624      -0.83954377      -0.90314220
H        0.21039225      -1.80348587      -0.27643193
7
Lattice="529.1772105638412 0.0 0.0 0.0 529.1772105638412 0.0 0.0 0.0 529.1772105638412" Properties=species:S:1:pos:R:3 ipi_comment="Step:         280  Bead:       0 positions{ase}  cell{ase}" pbc="T T T"
O       -0.37317542       1.03234998       0.65433793
H       -0.76487967       0.75899578       1.49727210
H       -1.01953576       1.49626875       0.16643076
O        0.38231383      -0.99061450      -0.67389260
H       -0.02499299      -0.16611834      -0.09408582
H        1.30780547      -0.83646223      -0.85837402
H        0.35655791      -1.91511036      -0.40087067
7
Lattice="529.1772105638412 0.0 0.0 0.0 529.1772105638412 0.0 0.0 0.0 529.1772105638412" Properties=species:S:1:pos:R:3 ipi_comment="Step:         300  Bead:       0 positions{ase}  cell{ase}" pbc="T T T"
O       -0.38475149       0.99983319       0.64003908
H       -0.74917712       0.82375513       1.54144557
H       -0.99731473       1.57465018       0.20509913
O        0.40178568      -0.98166159      -0.67741671
H       -0.12180713      -0.02168375       0.04965468
H        1.31178229      -0.77274855      -0.87530874
H        0.28614959      -1.89239285      -0.32763187
7
Lattice="529.1772105638412 0.0 0.0 0.0 529.1772105638412 0.0 0.0 0.0 529.1772105638412" Properties=species:S:1:pos:R:3 ipi_comment="Step:         320  Bead:       0 positions{ase}  cell{ase}" pbc="T T T"
O       -0.40001149       0.95955640       0.63890529
H       -0.73337728       0.82358123       1.56904947
H       -0.86355104       1.64312028       0.13721751
O        0.39877067      -0.93870408      -0.67298372
H       -0.04988241       0.02382901       0.02021104
H        1.34054635      -0.94183920      -0.88229482
H        0.32595874      -1.87965962      -0.30328949
7
Lattice="529.1772105638412 0.0 0.0 0.0 529.1772105638412 0.0 0.0 0.0 529.1772105638412" Properties=species:S:1:pos:R:3 ipi_comment="Step:         340  Bead:       0 positions{ase}  cell{ase}" pbc="T T T"
O       -0.40961350       0.91921709       0.64444055
H       -0.83252724       0.90810329       1.53020848
H       -0.74825842       1.76530632       0.19261016
O        0.41425991      -0.91831980      -0.66581471
H        0.10754000      -0.08063202       0.01471108
H        1.29098828      -0.79615301      -1.08667063
H        0.10850944      -1.81086628      -0.31160782
7
Lattice="529.1772105638412 0.0 0.0 0.0 529.1772105638412 0.0 0.0 0.0 529.1772105638412" Properties=species:S:1:pos:R:3 ipi_comment="Step:         360  Bead:       0 positions{ase}  cell{ase}" pbc="T T T"
O       -0.42565082       0.91429989       0.66375793
H       -0.81975520       0.97701018       1.55097856
H       -0.43625536       1.79453893       0.13845788
O        0.41161730      -0.91032922      -0.66526910
H        0.05774122      -0.02258078       0.07682667
H        1.24851133      -0.94608761      -1.23164330
H        0.17249822      -1.86590304      -0.51063441
7
Lattice="529.1772105638412 0.0 0.0 0.0 529.1772105638412 0.0 0.0 0.0 529.1772105638412" Properties=species:S:1:pos:R:3 ipi_comment="Step:         380  Bead:       0 positions{ase}  cell{ase}" pbc="T T T"
O       -0.42308882       0.94465647       0.68135075
H       -0.66074433       1.00132938       1.62221029
H       -0.21363810       1.87581605       0.30175695
O        0.40188933      -0.95541743      -0.69421053
H       -0.09789882       0.04783461       0.15618509
H        1.20264141      -0.85782250      -1.30230768
H        0.10611863      -1.89635911      -0.57373383
7
Lattice="529.1772105638412 0.0 0.0 0.0 529.1772105638412 0.0 0.0 0.0 529.1772105638412" Properties=species:S:1:pos:R:3 ipi_comment="Step:         400  Bead:       0 positions{ase}  cell{ase}" pbc="T T T"
O       -0.43687253       0.98403563       0.69254740
H       -0.45768888       0.77897775       1.65500376
H       -0.11318039       1.90955212       0.50425622
O        0.39051742      -0.97757295      -0.70596420
H       -0.00772678       0.07381713      -0.01363394
H        1.20516815      -0.95537366      -1.28356905
H        0.10917735      -1.90954898      -0.64910504
7
Lattice="529.1772105638412 0.0 0.0 0.0 529.1772105638412 0.0 0.0 0.0 529.1772105638412" Properties=species:S:1:pos:R:3 ipi_comment="Step:         420  Bead:       0 positions{ase}  cell{ase}" pbc="T T T"
O       -0.44928514       0.95921899       0.67708094
H       -0.28795475       0.56333322       1.58107836
H        0.04772106       1.80090495       0.70074289
O        0.38863917      -0.94347799      -0.70154497
H        0.00690211       0.18296417      -0.04141230
H        1.20448362      -0.98654575      -1.23599156
H       -0.00857783      -1.81049799      -0.61612360
7
Lattice="529.1772105638412 0.0 0.0 0.0 529.1772105638412 0.0 0.0 0.0 529.1772105638412" Properties=species:S:1:pos:R:3 ipi_comment="Step:         440  Bead:       0 positions{ase}  cell{ase}" pbc="T T T"
O       -0.42515765       0.92598166       0.66726625
H       -0.36053839       0.45269540       1.53171962
H        0.25328867       1.59796147       0.66281996
O        0.36838349      -0.89009325      -0.68721312
H       -0.12068425       0.13361645      -0.09036430
H        1.16005588      -1.02350234      -1.19849096
H       -0.03100112      -1.73039252      -0.58908704
7
Lattice="529.1772105638412 0.0 0.0 0.0 529.1772105638412 0.0 0.0 0.0 529.1772105638412" Properties=species:S:1:pos:R:3 ipi_comment="Step:         460  Bead:       0 positions{ase}  cell{ase}" pbc="T T T"
O       -0.39833191       0.91777468       0.66310150
H       -0.48507163       0.66288161       1.60947744
H        0.33250945       1.52475807       0.67322046
O        0.34330719      -0.89189899      -0.69676056
H       -0.07231984       0.05457671       0.04072511
H        1.16361565      -0.90615926      -1.12890187
H       -0.06537996      -1.74675650      -0.66028377
7
Lattice="529.1772105638412 0.0 0.0 0.0 529.1772105638412 0.0 0.0 0.0 529.1772105638412" Properties=species:S:1:pos:R:3 ipi_comment="Step:         480  Bead:       0 positions{ase}  cell{ase}" pbc="T T T"
O       -0.35691150       0.92793318       0.70051863
H       -0.68718613       0.83690286       1.59980865
H        0.29193415       1.65251801       0.65171695
O        0.31113881      -0.90963945      -0.72867641
H       -0.01538838      -0.09728534       0.15076872
H        1.13987343      -0.86123183      -1.13300361
H       -0.00272793      -1.82126216      -0.82236970
7
Lattice="529.1772105638412 0.0 0.0 0.0 529.1772105638412 0.0 0.0 0.0 529.1772105638412" Properties=species:S:1:pos:R:3 ipi_comment="Step:         500  Bead:       0 positions{ase}  cell{ase}" pbc="T T T"
O       -0.29963584       0.93329379       0.76888733
H       -0.79304972       0.91937421       1.56847274
H        0.16141959       1.81312736       0.71046118
O        0.28074941      -0.93475176      -0.78264865
H       -0.07874702      -0.05903877      -0.00210407
H        1.14473148      -0.83602888      -1.15737922
H       -0.13458855      -1.81429282      -0.90103059
7
Lattice="529.1772105638412 0.0 0.0 0.0 529.1772105638412 0.0 0.0 0.0 529.1772105638412" Properties=species:S:1:pos:R:3 ipi_comment="Step:         520  Bead:       0 positions{ase}  cell{ase}" pbc="T T T"
O       -0.24957312       0.91372190       0.82553765
H       -0.92697651       0.85809751       1.48005312
H        0.05421751       1.84598028       0.73123453
O        0.25242278      -0.90804924      -0.81863013
H       -0.00972593      -0.08809758      -0.16452337
H        1.12871301      -0.97956545      -1.29904139
H       -0.29145797      -1.72645126      -0.85735907
7
Lattice="529.1772105638412 0.0 0.0 0.0 529.1772105638412 0.0 0.0 0.0 529.1772105638412" Properties=species:S:1:pos:R:3 ipi_comment="Step:         540  Bead:       0 positions{ase}  cell{ase}" pbc="T T T"
O       -0.20582708       0.87817816       0.85359812
H       -1.04989360       0.85700417       1.36502473
H       -0.04939862       1.83255332       0.74237239
O        0.22191755      -0.86832630      -0.85495550
H        0.18573227      -0.01979440       0.01451561
H        1.04500310      -1.19631140      -1.36907590
H       -0.38683156      -1.62982055      -0.73129228
7
Lattice="529.1772105638412 0.0 0.0 0.0 529.1772105638412 0.0 0.0 0.0 529.1772105638412" Properties=species:S:1:pos:R:3 ipi_comment="Step:         560  Bead:       0 positions{ase}  cell{ase}" pbc="T T T"
O       -0.16559133       0.84847500       0.87108550
H       -1.12709703       0.68103847       1.15187980
H       -0.02952079       1.73541386       0.56552066
O        0.18696957      -0.82882080      -0.86790007
H        0.10089119       0.05313489       0.04262068
H        1.10341290      -1.21564902      -1.19021043
H       -0.38700229      -1.56588983      -0.62036989
7
Lattice="529.1772105638412 0.0 0.0 0.0 529.1772105638412 0.0 0.0 0.0 529.1772105638412" Properties=species:S:1:pos:R:3 ipi_comment="Step:         580  Bead:       0 positions{ase}  cell{ase}" pbc="T T T"
O       -0.12563692       0.81362095       0.86168096
H       -1.13802324       0.79243456       1.08133169
H       -0.10897091       1.70044690       0.49061285
O        0.14963647      -0.80036685      -0.85554992
H        0.00573286       0.04405107      -0.02588909
H        1.15910427      -1.08251471      -0.87928086
H       -0.29876461      -1.66478690      -0.76408657
7
Lattice="529.1772105638412 0.0 0.0 0.0 529.1772105638412 0.0 0.0 0.0 529.1772105638412" Properties=species:S:1:pos:R:3 ipi_comment="Step:         600  Bead:       0 positions{ase}  cell{ase}" pbc="T T T"
O       -0.13996160       0.83423283       0.84870132
H       -1.00672281       0.84645795       1.37605647
H        0.13509555       1.72120835       0.52051987
O        0.15007744      -0.82790726      -0.86408853
H       -0.22487868      -0.05138015      -0.00177021
H        1.18440883      -0.89031720      -0.74320417
H       -0.24846183      -1.72636840      -0.90737577
7
Lattice="529.1772105638412 0.0 0.0 0.0 529.1772105638412 0.0 0.0 0.0 529.1772105638412" Properties=species:S:1:pos:R:3 ipi_comment="Step:         620  Bead:       0 positions{ase}  cell{ase}" pbc="T T T"
O       -0.17653333       0.86722687       0.84910161
H       -0.75251150       1.09836048       1.61680938
H        0.24106809       1.74411989       0.54312908
O        0.15881312      -0.86646431      -0.87276632
H       -0.17414115      -0.04165287       0.04446569
H        1.17254260      -1.02279380      -0.84602455
H       -0.20570252      -1.79013693      -0.98277276
7
Lattice="529.1772105638412 0.0 0.0 0.0 529.1772105638412 0.0 0.0 0.0 529.1772105638412" Properties=species:S:1:pos:R:3 ipi_comment="Step:         640  Bead:       0 positions{ase}  cell{ase}" pbc="T T T"
O       -0.19913114       0.89628066       0.83089971
H       -0.66142827       1.05905980       1.66862091
H        0.32622624       1.70702549       0.48724449
O        0.17714976      -0.88176458      -0.85243898
H       -0.02218709      -0.22458276       0.01660164
H        1.14987452      -1.08790420      -0.98323327
H       -0.44359655      -1.68399780      -0.84736189
7
Lattice="529.1772105638412 0.0 0.0 0.0 529.1772105638412 0.0 0.0 0.0 529.1772105638412" Properties=species:S:1:pos:R:3 ipi_comment="Step:         660  Bead:       0 positions{ase}  cell{ase}" pbc="T T T"
O       -0.19672773       0.89545974       0.77713256
H       -0.64989944       0.94173515       1.65486205
H        0.21621843       1.81718345       0.69465640
O        0.18226159      -0.88196514      -0.81066751
H        0.11140574      -0.07781046       0.01970123
H        1.02935770      -1.24461850      -1.08659553
H       -0.47747554      -1.65067616      -0.75035641
7
Lattice="529.1772105638412 0.0 0.0 0.0 529.1772105638412 0.0 0.0 0.0 529.1772105638412" Properties=species:S:1:pos:R:3 ipi_comment="Step:         680  Bead:       0 positions{ase}  cell{ase}" pbc="T T T"
O       -0.18680699       0.93574721       0.72248073
H       -0.59656535       0.51279061       1.51314692
H        0.16587246       1.84699631       0.68560303
O        0.17891087      -0.91361887      -0.75322008
H        0.10720945       0.16240696       0.06958856
H        0.96312047      -1.26988925      -1.10515217
H       -0.51430970      -1.60352604      -0.67529058
7
Lattice="529.1772105638412 0.0 0.0 0.0 529.1772105638412 0.0 0.0 0.0 529.1772105638412" Properties=species:S:1:pos:R:3 ipi_comment="Step:         700  Bead:       0 positions{ase}  cell{ase}" pbc="T T T"
O       -0.18597754       0.97115868       0.68109637
H       -0.46116182       0.69080351       1.60750110
H        0.06901770       1.89087171       0.83973931
O        0.18126741      -0.95543059      -0.70479315
H        0.05366059       0.09495024      -0.26484972
H        0.94587023      -1.33826979      -1.13535985
H       -0.53262743      -1.58799200      -0.67091480
7
Lattice="529.1772105638412 0.0 0.0 0.0 529.1772105638412 0.0 0.0 0.0 529.1772105638412" Properties=species:S:1:pos:R:3 ipi_comment="Step:         720  Bead:       0 positions{ase}  cell{ase}" pbc="T T T"
O       -0.18377718       1.03658691       0.67173269
H       -0.42934981       0.71830105       1.57381978
H        0.09920111       1.93509239       0.61499794
O        0.17654679      -1.02613731      -0.67785426
H        0.07960001      -0.00750840      -0.14485502
H        0.96041501      -1.25869597      -1.19290987
H       -0.59510543      -1.55304524      -0.75389106
7
Lattice="529.1772105638412 0.0 0.0 0.0 529.1772105638412 0.0 0.0 0.0 529.1772105638412" Properties=species:S:1:pos:R:3 ipi_comment="Step:         740  Bead:       0 positions{ase}  cell{ase}" pbc="T T T"
O       -0.20659744       1.05670624       0.64520146
H       -0.35561322       1.07481417       1.61185779
H        0.19809191       1.87785748       0.41163108
O        0.19006927      -1.07255124      -0.63381171
H        0.02759641       0.14780716       0.11735058
H        0.87177620      -1.19448312      -1.32910326
H       -0.47951592      -1.65450334      -0.99251458
7
Lattice="529.1772105638412 0.0 0.0 0.0 529.1772105638412 0.0 0.0 0.0 529.1772105638412" Properties=species:S:1:pos:R:3 ipi_comment="Step:         760  Bead:       0 positions{ase}  cell{ase}" pbc="T T T"
O       -0.23455454       1.08342075       0.61846303
H       -0.26771694       1.18785554       1.56999626
H        0.30734812       1.70547812       0.13119774
O        0.20786731      -1.09961406      -0.59624736
H       -0.04797142      -0.02743627       0.15875961
H        0.95580171      -0.99035991      -1.23963550
H       -0.52388121      -1.61851671      -0.97292564
7
Lattice="529.1772105638412 0.0 0.0 0.0 529.1772105638412 0.0 0.0 0.0 529.1772105638412" Properties=species:S:1:pos:R:3 ipi_comment="Step:         780  Bead:       0 positions{ase}  cell{ase}" pbc="T T T"
O       -0.25457378       1.04965773       0.56695274
H       -0.09656708       1.22786167       1.48612826
H        0.27881563       1.78565783       0.21975969
O        0.22020471      -1.07068914      -0.53454189
H       -0.02869296      -0.13772355      -0.03890244
H        0.93744960      -0.97375311      -1.22867514
H       -0.54549854      -1.56823162      -0.95273611
7
Lattice="529.1772105638412 0.0 0.0 0.0 529.1772105638412 0.0 0.0 0.0 529.1772105638412" Properties=species:S:1:pos:R:3 ipi_comment="Step:         800  Bead:       0 positions{ase}  cell{ase}" pbc="T T T"
O       -0.24663913       1.04498061       0.51185269
H       -0.06014296       0.88781201       1.41902991
H        0.07915572       1.89113598       0.11403026
O        0.22612085      -1.06395052      -0.47612794
H       -0.01087098       0.11570727      -0.05967381
H        0.93940069      -1.11675239      -1.15429379
H       -0.62187592      -1.47681185      -0.88611648
7
Lattice="529.1772105638412 0.0 0.0 0.0 529.1772105638412 0.0 0.0 0.0 529.1772105638412" Properties=species:S:1:pos:R:3 ipi_comment="Step:         820  Bead:       0 positions{ase}  cell{ase}" pbc="T T T"
O       -0.25201501       1.05744802       0.46558325
H        0.06508860       0.95168776       1.36800113
H       -0.09298280       2.03322089       0.29406161
O        0.23051391      -1.07176093      -0.44009573
H        0.08152702       0.09132511      -0.21513986
H        0.92527663      -1.38079364      -1.02203865
H       -0.63764359      -1.46826502      -0.82942269
7
Lattice="529.1772105638412 0.0 0.0 0.0 529.1772105638412 0.0 0.0 0.0 529.1772105638412" Properties=species:S:1:pos:R:3 ipi_comment="Step:         840  Bead:       0 positions{ase}  cell{ase}" pbc="T T T"
O       -0.26732398       1.10067684       0.45600589
H        0.07209318       1.04092009       1.38669816
H       -0.21974757       2.02800883       0.13347558
O        0.24066318      -1.10519951      -0.43136764
H        0.18758273      -0.05746123      -0.28931008
H        1.02881471      -1.42996324      -0.90218668
H       -0.64558218      -1.50972034      -0.71973587
7
Lattice="529.1772105638412 0.0 0.0 0.0 529.1772105638412 0.0 0.0 0.0 529.1772105638412" Properties=species:S:1:pos:R:3 ipi_comment="Step:         860  Bead:       0 positions{ase}  cell{ase}" pbc="T T T"
O       -0.27390738       1.12775121       0.44625161
H        0.01778841       1.29447404       1.41826752
H       -0.34724408       1.98291687      -0.01451331
O        0.26393224      -1.14483733      -0.42801778
H       -0.01439900       0.08935340       0.03839086
H        1.02890269      -1.41970388      -1.01046215
H       -0.52672243      -1.67584904      -0.72109069
7
Lattice="529.1772105638412 0.0 0.0 0.0 529.1772105638412 0.0 0.0 0.0 529.1772105638412" Properties=species:S:1:pos:R:3 ipi_comment="Step:         880  Bead:       0 positions{ase}  cell{ase}" pbc="T T T"
O       -0.29345200       1.13985561       0.45270488
H       -0.07424638       1.54124543       1.36741558
H       -0.33705649       1.79000291      -0.26706475
O        0.27682431      -1.16838168      -0.40866101
H       -0.00018950       0.11361612       0.03063824
H        1.04653085      -1.18413552      -1.08292553
H       -0.37112343      -1.80796236      -0.74712879
7
Lattice="529.1772105638412 0.0 0.0 0.0 529.1772105638412 0.0 0.0 0.0 529.1772105638412" Properties=species:S:1:pos:R:3 ipi_comment="Step:         900  Bead:       0 positions{ase}  cell{ase}" pbc="T T T"
O       -0.30607255       1.12213129       0.43949399
H       -0.05560631       1.58934289       1.28949456
H       -0.34295305       1.78096048      -0.30317756
O        0.29294191      -1.14820685      -0.39918851
H       -0.04089993      -0.10707096       0.20201365
H        1.02364120      -1.07515456      -1.13700985
H       -0.37577206      -1.77420579      -0.69105027
7
Lattice="529.1772105638412 0.0 0.0 0.0 529.1772105638412 0.0 0.0 0.0 529.1772105638412" Properties=species:S:1:pos:R:3 ipi_comment="Step:         920  Bead:       0 positions{ase}  cell{ase}" pbc="T T T"
O       -0.29960165       1.07449521       0.42819241
H        0.08820405       1.47240668       1.22410278
H       -0.46092095       1.80834780      -0.23853808
O        0.29517992      -1.10584323      -0.37101340
H       -0.01639801      -0.08629449      -0.09144788
H        0.90478972      -0.99861691      -1.18720913
H       -0.44549302      -1.69828638      -0.61445421
7
Lattice="529.1772105638412 0.0 0.0 0.0 529.1772105638412 0.0 0.0 0.0 529.1772105638412" Properties=species:S:1:pos:R:3 ipi_comment="Step:         940  Bead:       0 positions{ase}  cell{ase}" pbc="T T T"
O       -0.28637182       1.04803375       0.41804002
H        0.23539589       1.23433010       1.19720649
H       -0.59781885       1.88795570      -0.03635047
O        0.28974102      -1.08347489      -0.37263011
H       -0.06817791       0.09095622      -0.00923248
H        0.88442660      -1.07660830      -1.17880169
H       -0.50730170      -1.57411094      -0.69356901
7
Lattice="529.1772105638412 0.0 0.0 0.0 529.1772105638412 0.0 0.0 0.0 529.1772105638412" Properties=species:S:1:pos:R:3 ipi_comment="Step:         960  Bead:       0 positions{ase}  cell{ase}" pbc="T T T"
O       -0.29145590       1.05229821       0.46041995
H        0.30901588       1.22749032       1.18811804
H       -0.62933371       1.92881400       0.17246670
O        0.28053861      -1.07891562      -0.42267646
H        0.05108382      -0.05827470      -0.14990163
H        0.99685298      -1.17050337      -1.06492582
H       -0.55433952      -1.50505385      -0.74482278
7
Lattice="529.1772105638412 0.0 0.0 0.0 529.1772105638412 0.0 0.0 0.0 529.1772105638412" Properties=species:S:1:pos:R:3 ipi_comment="Step:         980  Bead:       0 positions{ase}  cell{ase}" pbc="T T T"
O       -0.28791094       1.07373558       0.53414833
H        0.27287791       1.30068550       1.28689059
H       -0.72125144       1.85019577       0.10996905
O        0.28163009      -1.09563254      -0.48943516
H        0.00001058       0.06009988      -0.16311434
H        1.00961988      -1.23732099      -1.06895516
H       -0.46156715      -1.62611079      -0.87447854
7
Lattice="529.1772105638412 0.0 0.0 0.0 529.1772105638412 0.0 0.0 0.0 529.1772105638412" Properties=species:S:1:pos:R:3 ipi_comment="Step:        1000  Bead:       0 positions{ase}  cell{ase}" pbc="T T T"
O       -0.28891139       1.07661190       0.57770114
H        0.26365711       1.48422046       1.27795730
H       -0.71189755       1.79396457       0.05946773
O        0.27629892      -1.10199339      -0.55191878
H       -0.03237000       0.00049589       0.17804502
H        1.08845193      -1.18475686      -1.01568839
H       -0.40765611      -1.69106813      -0.90899973
7
Lattice="529.1772105638412 0.0 0.0 0.0 529.1772105638412 0.0 0.0 0.0 529.1772105638412" Properties=species:S:1:pos:R:3 ipi_comment="Step:        1020  Bead:       0 positions{ase}  cell{ase}" pbc="T T T"