7
Lattice="529.1772105638412 0.0 0.0 0.0 529.1772105638412 0.0 0.0 0.0 529.1772105638412" Properties=species:S:1:pos:R:3:forces_component_raw:R:3 ipi_comment="Step:           0  Bead:       0 forces_component_raw{ase}  cell{ase}" pbc="T T T"
O        0.00000000       0.00000000       0.00000000      -1.20235155      -1.33309892      -1.10970467
H        0.00000000       0.00000000       0.00000000       1.99433397       1.66725940       1.47225960
H        0.00000000       0.00000000       0.00000000      -0.71254995       0.53035395       0.34949677
O        0.00000000       0.00000000       0.00000000      -0.01923594      -0.22618330       0.09032252
H        0.00000000       0.00000000       0.00000000      -0.13305228      -0.50980102      -0.51597451
H        0.00000000       0.00000000       0.00000000       0.47623290       0.07742911      -0.17196856
H        0.00000000       0.00000000       0.00000000      -0.40337714      -0.20595922      -0.11443114
7
Lattice="529.1772105638412 0.0 0.0 0.0 529.1772105638412 0.0 0.0 0.0 529.1772105638412" Properties=species:S:1:pos:R:3:forces_component_raw:R:3 ipi_comment="Step:          20  Bead:       0 forces_component_raw{ase}  cell{ase}" pbc="T T T"
O        0.00000000       0.00000000       0.00000000       0.64106165      -1.06106743      -1.71618626
H        0.00000000       0.00000000       0.00000000       1.00612920       0.42044883       0.52668716
H        0.00000000       0.00000000       0.00000000      -1.80060309       0.41922135       0.80824215
O        0.00000000       0.00000000       0.00000000      -0.67318031       0.32888814       0.71386639
H        0.00000000       0.00000000       0.00000000       0.64760036       0.07770701       0.26226269
H        0.00000000       0.00000000       0.00000000       0.74871617       0.26570256      -0.35894859
H        0.00000000       0.00000000       0.00000000      -0.56972399      -0.45090047      -0.23592354
7
Lattice="529.1772105638412 0.0 0.0 0.0 529.1772105638412 0.0 0.0 0.0 529.1772105638412" Properties=species:S:1:pos:R:3:forces_component_raw:R:3 ipi_comment="Step:          40  Bead:       0 forces_component_raw{ase}  cell{ase}" pbc="T T T"
O        0.00000000       0.00000000       0.00000000       1.05345418      -0.06378576      -0.10805098
H        0.00000000       0.00000000       0.00000000      -0.08968112      -0.07895586      -0.25125355
H        0.00000000       0.00000000       0.00000000      -0.63842901      -0.13190288       0.15230040
O        0.00000000       0.00000000       0.00000000      -0.04679869       0.37591603       0.51512227
H        0.00000000       0.00000000       0.00000000      -0.64150202       0.11871349       0.15091003
H        0.00000000       0.00000000       0.00000000       0.16750411      -0.29842068      -0.37597859
H        0.00000000       0.00000000       0.00000000       0.19545255       0.07843566      -0.08304959
7
Lattice="529.1772105638412 0.0 0.0 0.0 529.1772105638412 0.0 0.0 0.0 529.1772105638412" Properties=species:S:1:pos:R:3:forces_component_raw:R:3 ipi_comment="Step:          60  Bead:       0 forces_component_raw{ase}  cell{ase}" pbc="T T T"
O        0.00000000       0.00000000       0.00000000       0.07446665       0.73252236       1.71251283
H        0.00000000       0.00000000       0.00000000      -1.16078299      -0.80608698      -1.29436355
H        0.00000000       0.00000000       0.00000000       0.53269910       0.45281769      -0.03316243
O        0.00000000       0.00000000       0.00000000      -1.28383210      -1.10166991       0.42668757
H        0.00000000       0.00000000       0.00000000       0.61253984      -0.39561726      -0.51218830
H        0.00000000       0.00000000       0.00000000       0.70243525       0.14355743      -0.45289488
H        0.00000000       0.00000000       0.00000000       0.52247425       0.97447666       0.15340875
7
Lattice="529.1772105638412 0.0 0.0 0.0 529.1772105638412 0.0 0.0 0.0 529.1772105638412" Properties=species:S:1:pos:R:3:forces_component_raw:R:3 ipi_comment="Step:          80  Bead:       0 forces_component_raw{ase}  cell{ase}" pbc="T T T"
O        0.00000000       0.00000000       0.00000000       0.59794630      -0.10716189       2.05701777
H        0.00000000       0.00000000       0.00000000      -1.52173787      -0.64147964      -1.92459001
H        0.00000000       0.00000000       0.00000000       1.22658938       0.47107258      -0.64701796
O        0.00000000       0.00000000       0.00000000      -0.37497348      -1.06058076      -0.07089431
H        0.00000000       0.00000000       0.00000000      -0.46563406      -0.11736777       0.55879241
H        0.00000000       0.00000000       0.00000000      -0.08878407       0.08524385       0.09708927
H        0.00000000       0.00000000       0.00000000       0.62659381       1.37027363      -0.07039718
7
Lattice="529.1772105638412 0.0 0.0 0.0 529.1772105638412 0.0 0.0 0.0 529.1772105638412" Properties=species:S:1:pos:R:3:forces_component_raw:R:3 ipi_comment="Step:         100  Bead:       0 forces_component_raw{ase}  cell{ase}" pbc="T T T"
O        0.00000000       0.00000000       0.00000000       0.68778352      -0.32260192       2.67985407
H        0.00000000       0.00000000       0.00000000      -1.96449656      -0.12412939      -1.87568955
H        0.00000000       0.00000000       0.00000000       1.33774170       0.49417158      -0.61170811
O        0.00000000       0.00000000       0.00000000      -0.39830861      -1.74031613      -0.03331189
H        0.00000000       0.00000000       0.00000000      -0.12922191       0.53518953       0.15943991
H        0.00000000       0.00000000       0.00000000      -0.73223295      -0.41514680       0.59982645
H        0.00000000       0.00000000       0.00000000       1.19873481       1.57283313      -0.91841088
7
Lattice="529.1772105638412 0.0 0.0 0.0 529.1772105638412 0.0 0.0 0.0 529.1772105638412" Properties=species:S:1:pos:R:3:forces_component_raw:R:3 ipi_comment="Step:         120  Bead:       0 forces_component_raw{ase}  cell{ase}" pbc="T T T"
O        0.00000000       0.00000000       0.00000000       0.44843015       0.72326623       2.35840785
H        0.00000000       0.00000000       0.00000000      -1.98239474      -0.03398958      -1.51482633
H        0.00000000       0.00000000       0.00000000       1.40438911      -0.06310126      -0.47169152
O        0.00000000       0.00000000       0.00000000       1.74262421      -2.58112696      -1.23765088
H        0.00000000       0.00000000       0.00000000       0.13201344      -0.49589219      -0.07900517
H        0.00000000       0.00000000       0.00000000      -1.30283364       0.62469813       0.72366860
H        0.00000000       0.00000000       0.00000000      -0.44222853       1.82614562       0.22109745
7
Lattice="529.1772105638412 0.0 0.0 0.0 529.1772105638412 0.0 0.0 0.0 529.1772105638412" Properties=species:S:1:pos:R:3:forces_component_raw:R:3 ipi_comment="Step:         140  Bead:       0 forces_component_raw{ase}  cell{ase}" pbc="T T T"
O        0.00000000       0.00000000       0.00000000      -0.69479176      -0.20272489       1.04912384
H        0.00000000       0.00000000       0.00000000      -0.84471250       0.00725262      -0.80564334
H        0.00000000       0.00000000       0.00000000       1.59669243      -0.36172553      -0.48494303
O        0.00000000       0.00000000       0.00000000      -0.44191861       1.09378554       0.40372753
H        0.00000000       0.00000000       0.00000000       0.14255104       0.05467499      -0.01887650
H        0.00000000       0.00000000       0.00000000      -0.41284386      -1.15202626       0.12911291
H        0.00000000       0.00000000       0.00000000       0.65502327       0.56076353      -0.27250140
7
Lattice="529.1772105638412 0.0 0.0 0.0 529.1772105638412 0.0 0.0 0.0 529.1772105638412" Properties=species:S:1:pos:R:3:forces_component_raw:R:3 ipi_comment="Step:         160  Bead:       0 forces_component_raw{ase}  cell{ase}" pbc="T T T"
O        0.00000000       0.00000000       0.00000000      -0.98940318      -0.13189669      -0.00144942
H        0.00000000       0.00000000       0.00000000       0.20903594       0.10145999       0.31813300
H        0.00000000       0.00000000       0.00000000       0.94972597      -0.51458483      -0.33049469
O        0.00000000       0.00000000       0.00000000       0.70668298      -0.16217909      -0.77686582
H        0.00000000       0.00000000       0.00000000      -0.18608350       0.54712785       0.25640383
H        0.00000000       0.00000000       0.00000000      -0.06798393       0.60318868      -0.10418144
H        0.00000000       0.00000000       0.00000000      -0.62197429      -0.44311591       0.63845455
7
Lattice="529.1772105638412 0.0 0.0 0.0 529.1772105638412 0.0 0.0 0.0 529.1772105638412" Properties=species:S:1:pos:R:3:forces_component_raw:R:3 ipi_comment="Step:         180  Bead:       0 forces_component_raw{ase}  cell{ase}" pbc="T T T"
O        0.00000000       0.00000000       0.00000000      -0.65738641      -0.39951078      -2.00641291
H        0.00000000       0.00000000       0.00000000       0.36179941       0.08443105       1.64106828
H        0.00000000       0.00000000       0.00000000       0.19664465      -0.13052646       0.09136462
O        0.00000000       0.00000000       0.00000000      -2.45570981       1.03277280       1.18455819
H        0.00000000       0.00000000       0.00000000       0.30791734      -0.05866568      -0.14474348
H        0.00000000       0.00000000       0.00000000       1.65295842      -0.01788164      -0.76767118
H        0.00000000       0.00000000       0.00000000       0.59377641      -0.51061930       0.00183648
7
Lattice="529.1772105638412 0.0 0.0 0.0 529.1772105638412 0.0 0.0 0.0 529.1772105638412" Properties=species:S:1:pos:R:3:forces_component_raw:R:3 ipi_comment="Step:         200  Bead:       0 forces_component_raw{ase}  cell{ase}" pbc="T T T"
O        0.00000000       0.00000000       0.00000000       0.06946431       0.42032821      -2.40762131
H        0.00000000       0.00000000       0.00000000      -0.09956167       0.04517146       2.49431751
H        0.00000000       0.00000000       0.00000000      -0.17704839       0.18008925       0.06484380
O        0.00000000       0.00000000       0.00000000      -0.67648928      -0.13472845       0.03180970
H        0.00000000       0.00000000       0.00000000      -0.19291164      -0.09230183       0.30836939
H        0.00000000       0.00000000       0.00000000       1.44899644       0.75277781      -1.37440616
H        0.00000000       0.00000000       0.00000000      -0.37244977      -1.17133645       0.88268707
7
Lattice="529.1772105638412 0.0 0.0 0.0 529.1772105638412 0.0 0.0 0.0 529.1772105638412" Properties=species:S:1:pos:R:3:forces_component_raw:R:3 ipi_comment="Step:         220  Bead:       0 forces_component_raw{ase}  cell{ase}" pbc="T T T"
O        0.00000000       0.00000000       0.00000000       1.25364895       0.34502882      -1.03641294
H        0.00000000       0.00000000       0.00000000      -0.68906109      -0.38753841       2.24756514
H        0.00000000       0.00000000       0.00000000      -0.71917281       0.86729361      -0.72025894
O        0.00000000       0.00000000       0.00000000      -1.25922960       1.00549522      -0.05710340
H        0.00000000       0.00000000       0.00000000      -0.28398762       0.10705913      -0.20089679
H        0.00000000       0.00000000       0.00000000       1.20002202      -0.22785350      -0.75987986
H        0.00000000       0.00000000       0.00000000       0.49778014      -1.70948487       0.52698680
7
Lattice="529.1772105638412 0.0 0.0 0.0 529.1772105638412 0.0 0.0 0.0 529.1772105638412" Properties=species:S:1:pos:R:3:forces_component_raw:R:3 ipi_comment="Step:         240  Bead:       0 forces_component_raw{ase}  cell{ase}" pbc="T T T"
O        0.00000000       0.00000000       0.00000000       1.74658829      -0.65176001      -0.17815545
H        0.00000000       0.00000000       0.00000000      -0.97025547      -0.26225038       1.24943961
H        0.00000000       0.00000000       0.00000000      -0.93368393       1.16414963      -0.83793998
O        0.00000000       0.00000000       0.00000000      -0.25763386       0.87352231      -0.53452870
H        0.00000000       0.00000000       0.00000000       0.07054414      -0.02391040      -0.08952355
H        0.00000000       0.00000000       0.00000000       0.48071915       0.47710938      -0.61994887
H        0.00000000       0.00000000       0.00000000      -0.13627832      -1.57686053       1.01065693
7
Lattice="529.1772105638412 0.0 0.0 0.0 529.1772105638412 0.0 0.0 0.0 529.1772105638412" Properties=species:S:1:pos:R:3:forces_component_raw:R:3 ipi_comment="Step:         260  Bead:       0 forces_component_raw{ase}  cell{ase}" pbc="T T T"
O        0.00000000       0.00000000       0.00000000       0.47784859      -1.54791564       0.67691747
H        0.00000000       0.00000000       0.00000000       0.06218850      -0.25683416       0.54561461
H        0.00000000       0.00000000       0.00000000      -0.48228764       1.44974480      -1.35560539
O        0.00000000       0.00000000       0.00000000      -0.19372378       2.30364331      -0.38329419
H        0.00000000       0.00000000       0.00000000       0.03181074      -0.19381097      -0.06668605
H        0.00000000       0.00000000       0.00000000      -0.13097373      -0.47208874       0.31457641
H        0.00000000       0.00000000       0.00000000       0.23513733      -1.28273860       0.26847715
7
Lattice="529.1772105638412 0.0 0.0 0.0 529.1772105638412 0.0 0.0 0.0 529.1772105638412" Properties=species:S:1:pos:R:3:forces_component_raw:R:3 ipi_comment="Step:         280  Bead:       0 forces_component_raw{ase}  cell{ase}" pbc="T T T"
O        0.00000000       0.00000000       0.00000000       0.23645919      -2.11226893       0.54616124
H        0.00000000       0.00000000       0.00000000       0.67192601       0.51765386      -0.81828766
H        0.00000000       0.00000000       0.00000000      -0.43279691       0.56861013      -0.36592908
O        0.00000000       0.00000000       0.00000000       0.19331810      -0.31393401      -0.10305865
H        0.00000000       0.00000000       0.00000000      -0.24326859       0.30060744       0.26869651
H        0.00000000       0.00000000       0.00000000      -0.19086678       0.38236108       0.22264441
H        0.00000000       0.00000000       0.00000000      -0.23477101       0.65697043       0.24977324
7
Lattice="529.1772105638412 0.0 0.0 0.0 529.1772105638412 0.0 0.0 0.0 529.1772105638412" Properties=species:S:1:pos:R:3:forces_component_raw:R:3 ipi_comment="Step:         300  Bead:       0 forces_component_raw{ase}  cell{ase}" pbc="T T T"
O        0.00000000       0.00000000       0.00000000      -0.95237861       0.81472308       1.40262754
H        0.00000000       0.00000000       0.00000000       0.94243870      -0.13581147      -1.15304134
H        0.00000000       0.00000000       0.00000000      -0.09666179       0.13451828      -0.02000628
O        0.00000000       0.00000000       0.00000000      -0.41015148      -1.07371232       0.76289837
H        0.00000000       0.00000000       0.00000000       0.28896160      -1.03960023      -0.41149495
H        0.00000000       0.00000000       0.00000000      -0.01832080      -0.21939524       0.12198009
H        0.00000000       0.00000000       0.00000000       0.24611238       1.51927790      -0.70296342
7
Lattice="529.1772105638412 0.0 0.0 0.0 529.1772105638412 0.0 0.0 0.0 529.1772105638412" Properties=species:S:1:pos:R:3:forces_component_raw:R:3 ipi_comment="Step:         320  Bead:       0 forces_component_raw{ase}  cell{ase}" pbc="T T T"
O        0.00000000       0.00000000       0.00000000      -0.95162360       0.43523108       0.31542896
H        0.00000000       0.00000000       0.00000000       1.02658134       0.09243647      -1.09057896
H        0.00000000       0.00000000       0.00000000      -0.05917519      -0.79197581       0.61323753
O        0.00000000       0.00000000       0.00000000      -0.09885272      -2.96391510       0.30914804
H        0.00000000       0.00000000       0.00000000       0.16029436       0.65309239       0.36008652
H        0.00000000       0.00000000       0.00000000       0.13794055       0.44255768       0.01529174
H        0.00000000       0.00000000       0.00000000      -0.21516475       2.13257329      -0.52261383
7
Lattice="529.1772105638412 0.0 0.0 0.0 529.1772105638412 0.0 0.0 0.0 529.1772105638412" Properties=species:S:1:pos:R:3:forces_component_raw:R:3 ipi_comment="Step:         340  Bead:       0 forces_component_raw{ase}  cell{ase}" pbc="T T T"
O        0.00000000       0.00000000       0.00000000       0.39842815       2.30228540      -0.42520984
H        0.00000000       0.00000000       0.00000000      -0.17360051      -0.23048254       0.09582507
H        0.00000000       0.00000000       0.00000000      -0.12336152      -1.89546733       0.63370267
O        0.00000000       0.00000000       0.00000000      -0.28302500      -0.80887033       0.97592187
H        0.00000000       0.00000000       0.00000000      -0.43152349      -0.22018539      -0.42401368
H        0.00000000       0.00000000       0.00000000       0.28565510      -0.59567118      -0.10973090
H        0.00000000       0.00000000       0.00000000       0.32742727       1.44839136      -0.74649519
7
Lattice="529.1772105638412 0.0 0.0 0.0 529.1772105638412 0.0 0.0 0.0 529.1772105638412" Properties=species:S:1:pos:R:3:forces_component_raw:R:3 ipi_comment="Step:         360  Bead:       0 forces_component_raw{ase}  cell{ase}" pbc="T T T"
O        0.00000000       0.00000000       0.00000000       1.89964043       1.05273209      -0.95216034
H        0.00000000       0.00000000       0.00000000      -1.19756148       0.32680961       0.57646183
H        0.00000000       0.00000000       0.00000000      -0.86921163      -1.08291050       0.64696095
O        0.00000000       0.00000000       0.00000000       0.96570646      -0.59592126      -0.07952643
H        0.00000000       0.00000000       0.00000000       0.25961028      -0.12227280      -0.26797795
H        0.00000000       0.00000000       0.00000000      -0.62870554       0.20668878       0.07097513
H        0.00000000       0.00000000       0.00000000      -0.42947850       0.21487408       0.00526681
7
Lattice="529.1772105638412 0.0 0.0 0.0 529.1772105638412 0.0 0.0 0.0 529.1772105638412" Properties=species:S:1:pos:R:3:forces_component_raw:R:3 ipi_comment="Step:         380  Bead:       0 forces_component_raw{ase}  cell{ase}" pbc="T T T"
O        0.00000000       0.00000000       0.00000000       1.52780329       0.66740757      -0.78447918
H        0.00000000       0.00000000       0.00000000      -1.51367309      -0.18785437       0.42836231
H        0.00000000       0.00000000       0.00000000       0.05559699      -0.72994543       0.03703515
O        0.00000000       0.00000000       0.00000000      -0.19522827       1.01952545      -0.33507188
H        0.00000000       0.00000000       0.00000000       0.26276244      -0.16160396       0.21043400
H        0.00000000       0.00000000       0.00000000      -0.38243591      -0.39594616       0.36212613
H        0.00000000       0.00000000       0.00000000       0.24517455      -0.21158310       0.08159348
7
Lattice="529.1772105638412 0.0 0.0 0.0 529.1772105638412 0.0 0.0 0.0 529.1772105638412" Properties=species:S:1:pos:R:3:forces_component_raw:R:3 ipi_comment="Step:         400  Bead:       0 forces_component_raw{ase}  cell{ase}" pbc="T T T"
O        0.00000000       0.00000000       0.00000000       0.81080292      -2.22086155      -0.58765662
H        0.00000000       0.00000000       0.00000000      -0.78120008       0.43035113       0.06760769
H        0.00000000       0.00000000       0.00000000       0.22700713       1.22954726      -0.04823240
O        0.00000000       0.00000000       0.00000000      -0.21330737       1.60338762      -0.15583271
H        0.00000000       0.00000000       0.00000000      -0.10243275       0.08925011       0.07800835
H        0.00000000       0.00000000       0.00000000       0.14303448       0.13686714      -0.08310944
H        0.00000000       0.00000000       0.00000000      -0.08390433      -1.26854170       0.72921513
7
Lattice="529.1772105638412 0.0 0.0 0.0 529.1772105638412 0.0 0.0 0.0 529.1772105638412" Properties=species:S:1:pos:R:3:forces_component_raw:R:3 ipi_comment="Step:         420  Bead:       0 forces_component_raw{ase}  cell{ase}" pbc="T T T"
O        0.00000000       0.00000000       0.00000000      -1.49543034      -2.77274184      -1.17768729
H        0.00000000       0.00000000       0.00000000       0.39333785      -0.06719671       0.26252063
H        0.00000000       0.00000000       0.00000000       1.21302949       2.20129430       0.24210137
O        0.00000000       0.00000000       0.00000000      -0.37163319       1.96889783       0.00847116
H        0.00000000       0.00000000       0.00000000       0.02715210      -0.12380598       0.08259365
H        0.00000000       0.00000000       0.00000000       0.64655445       0.26947263      -0.45162746
H        0.00000000       0.00000000       0.00000000      -0.41301035      -1.47592022       1.03362794
7
Lattice="529.1772105638412 0.0 0.0 0.0 529.1772105638412 0.0 0.0 0.0 529.1772105638412" Properties=species:S:1:pos:R:3:forces_component_raw:R:3 ipi_comment="Step:         440  Bead:       0 forces_component_raw{ase}  cell{ase}" pbc="T T T"
O        0.00000000       0.00000000       0.00000000      -1.62901587      -1.23375220      -0.27262971
H        0.00000000       0.00000000       0.00000000       0.57474130       0.12340238       0.21280236
H        0.00000000       0.00000000       0.00000000       0.87910387       1.68872349       0.38347094
O        0.00000000       0.00000000       0.00000000      -0.58874687       2.02611524      -0.42960091
H        0.00000000       0.00000000       0.00000000      -0.03501172      -0.46523161      -0.21138363
H        0.00000000       0.00000000       0.00000000       1.11388316      -0.12300613      -0.69363221
H        0.00000000       0.00000000       0.00000000      -0.31495386      -2.01625118       1.01097316
7
Lattice="529.1772105638412 0.0 0.0 0.0 529.1772105638412 0.0 0.0 0.0 529.1772105638412" Properties=species:S:1:pos:R:3:forces_component_raw:R:3 ipi_comment="Step:         460  Bead:       0 forces_component_raw{ase}  cell{ase}" pbc="T T T"
O        0.00000000       0.00000000       0.00000000      -0.47822183       0.63720500       0.47397583
H        0.00000000       0.00000000       0.00000000       0.25435863      -0.31405184      -0.04177380
H        0.00000000       0.00000000       0.00000000       0.16547085       0.23769160       0.17763362
O        0.00000000       0.00000000       0.00000000      -1.04702812      -1.23246547      -0.31974563
H        0.00000000       0.00000000       0.00000000      -0.26901448       0.84150217       0.35520507
H        0.00000000       0.00000000       0.00000000       1.73286734       0.44482239      -0.99976761
H        0.00000000       0.00000000       0.00000000      -0.35843239      -0.61470385       0.35447254
7
Lattice="529.1772105638412 0.0 0.0 0.0 529.1772105638412 0.0 0.0 0.0 529.1772105638412" Properties=species:S:1:pos:R:3:forces_component_raw:R:3 ipi_comment="Step:         480  Bead:       0 forces_component_raw{ase}  cell{ase}" pbc="T T T"
O        0.00000000       0.00000000       0.00000000       0.97867835       1.72283561       0.95751230
H        0.00000000       0.00000000       0.00000000       0.07871682      -0.02952718      -0.04628849
H        0.00000000       0.00000000       0.00000000      -1.51760872      -0.97305078      -0.24382235
O        0.00000000       0.00000000       0.00000000      -1.58043273      -0.17988190       0.78555420
H        0.00000000       0.00000000       0.00000000       0.54627819      -0.64630024      -0.43907410
H        0.00000000       0.00000000       0.00000000       1.12184629      -0.29723513      -0.79101884
H        0.00000000       0.00000000       0.00000000       0.37252180       0.40315961      -0.22286272
7
Lattice="529.1772105638412 0.0 0.0 0.0 529.1772105638412 0.0 0.0 0.0 529.1772105638412" Properties=species:S:1:pos:R:3:forces_component_raw:R:3 ipi_comment="Step:         500  Bead:       0 forces_component_raw{ase}  cell{ase}" pbc="T T T"
O        0.00000000       0.00000000       0.00000000       3.37663733      -0.23401994      -0.05213435
H        0.00000000       0.00000000       0.00000000      -0.83569776       0.57582345      -0.27885522
H        0.00000000       0.00000000       0.00000000      -2.31070752      -1.28052261      -0.33175598
O        0.00000000       0.00000000       0.00000000       0.19994702      -0.35681439      -0.31841303
H        0.00000000       0.00000000       0.00000000       0.04747933       0.20630335       0.29290082
H        0.00000000       0.00000000       0.00000000      -0.19683789       0.21184726       0.17667958
H        0.00000000       0.00000000       0.00000000      -0.28082051       0.87738287       0.51157818
7
Lattice="529.1772105638412 0.0 0.0 0.0 529.1772105638412 0.0 0.0 0.0 529.1772105638412" Properties=species:S:1:pos:R:3:forces_component_raw:R:3 ipi_comment="Step:         520  Bead:       0 forces_component_raw{ase}  cell{ase}" pbc="T T T"
O        0.00000000       0.00000000       0.00000000       2.50703036       0.10342709       0.38283465
H        0.00000000       0.00000000       0.00000000      -0.02200042       0.11810266      -0.16223592
H        0.00000000       0.00000000       0.00000000      -2.14526296      -1.18737095      -0.70942739
O        0.00000000       0.00000000       0.00000000       0.25059439       0.65172391       0.21788272
H        0.00000000       0.00000000       0.00000000      -0.04641037       0.36776944      -0.30919992
H        0.00000000       0.00000000       0.00000000      -1.38715296      -0.76861460       1.00357590
H        0.00000000       0.00000000       0.00000000       0.84320194       0.71496244      -0.42343003
7
Lattice="529.1772105638412 0.0 0.0 0.0 529.1772105638412 0.0 0.0 0.0 529.1772105638412" Properties=species:S:1:pos:R:3:forces_component_raw:R:3 ipi_comment="Step:         540  Bead:       0 forces_component_raw{ase}  cell{ase}" pbc="T T T"
O        0.00000000       0.00000000       0.00000000       0.55645963       1.59784103      -0.19377453
H        0.00000000       0.00000000       0.00000000       0.26303306      -0.47630694       0.34308774
H        0.00000000       0.00000000       0.00000000      -0.75679217      -1.17202008      -0.63773439
O        0.00000000       0.00000000       0.00000000       0.79289175      -1.85743882      -2.07850625
H        0.00000000       0.00000000       0.00000000      -0.09935201      -0.21017636       0.37583850
H        0.00000000       0.00000000       0.00000000      -0.87386529       1.18817948       1.68197626
H        0.00000000       0.00000000       0.00000000       0.11762502       0.92992169       0.50911266
7
Lattice="529.1772105638412 0.0 0.0 0.0 529.1772105638412 0.0 0.0 0.0 529.1772105638412" Properties=species:S:1:pos:R:3:forces_component_raw:R:3 ipi_comment="Step:         560  Bead:       0 forces_component_raw{ase}  cell{ase}" pbc="T T T"
O        0.00000000       0.00000000       0.00000000      -0.85805913       0.49934561      -0.75462512
H        0.00000000       0.00000000       0.00000000       0.64308931      -0.51437350       0.67023783
H        0.00000000       0.00000000       0.00000000       0.37973612       0.38981879       0.37735010
O        0.00000000       0.00000000       0.00000000       1.55324330       0.48289962      -1.06618767
H        0.00000000       0.00000000       0.00000000      -0.20186329      -0.09756301      -0.39556964
H        0.00000000       0.00000000       0.00000000      -1.69885170       0.10888433       1.74460843
H        0.00000000       0.00000000       0.00000000       0.18270539      -0.86901185      -0.57581393
7
Lattice="529.1772105638412 0.0 0.0 0.0 529.1772105638412 0.0 0.0 0.0 529.1772105638412" Properties=species:S:1:pos:R:3:forces_component_raw:R:3 ipi_comment="Step:         580  Bead:       0 forces_component_raw{ase}  cell{ase}" pbc="T T T"
O        0.00000000       0.00000000       0.00000000      -2.17307835       1.26381495      -1.83466258
H        0.00000000       0.00000000       0.00000000       0.79245113      -1.33467158       0.88610199
H        0.00000000       0.00000000       0.00000000       1.23820638       0.70995676       1.62930310
O        0.00000000       0.00000000       0.00000000       1.27242029      -2.08587401      -1.83491518
H        0.00000000       0.00000000       0.00000000       0.01626403       0.36782017       0.28199762
H        0.00000000       0.00000000       0.00000000      -0.27117075       1.15566977       0.43875816
H        0.00000000       0.00000000       0.00000000      -0.87509272      -0.07671606       0.43341689
7
Lattice="529.1772105638412 0.0 0.0 0.0 529.1772105638412 0.0 0.0 0.0 529.1772105638412" Properties=species:S:1:pos:R:3:forces_component_raw:R:3 ipi_comment="Step:         600  Bead:       0 forces_component_raw{ase}  cell{ase}" pbc="T T T"
O        0.00000000       0.00000000       0.00000000      -1.83049205       0.72995848      -2.69117781
H        0.00000000       0.00000000       0.00000000       0.44728850      -0.79846695       0.83297893
H        0.00000000       0.00000000       0.00000000       1.21933210       0.52217546       2.08249120
O        0.00000000       0.00000000       0.00000000       0.83688704       1.37233820       0.35921259