7
Lattice="529.1772105638412 0.0 0.0 0.0 529.1772105638412 0.0 0.0 0.0 529.1772105638412" Properties=species:S:1:pos:R:3:forces_component_raw:R:3 ipi_comment="Step:           0  Bead:       0 forces_component_raw{ase}  cell{ase}" pbc="T T T"
O        0.00000000       0.00000000       0.00000000      -1.28486802      -1.25108640      -1.03736250
H        0.00000000       0.00000000       0.00000000       2.05888099       1.74550705       1.50692958
H        0.00000000       0.00000000       0.00000000      -0.75697922       0.58362634       0.37653383
O        0.00000000       0.00000000       0.00000000      -0.00701879      -0.32966992      -0.01074835
H        0.00000000       0.00000000       0.00000000      -0.07570725      -0.65200663      -0.57297712
H        0.00000000       0.00000000       0.00000000       0.43102732       0.08340311      -0.14546673
H        0.00000000       0.00000000       0.00000000      -0.36533504      -0.17977355      -0.11690871
7
Lattice="529.1772105638412 0.0 0.0 0.0 529.1772105638412 0.0 0.0 0.0 529.1772105638412" Properties=species:S:1:pos:R:3:forces_component_raw:R:3 ipi_comment="Step:          20  Bead:       0 forces_component_raw{ase}  cell{ase}" pbc="T T T"
O        0.00000000       0.00000000       0.00000000       0.01719432      -0.73448564      -1.21997523
H        0.00000000       0.00000000       0.00000000       0.96856336       0.38720417       0.50065640
H        0.00000000       0.00000000       0.00000000      -0.98383621       0.05621782       0.32315869
O        0.00000000       0.00000000       0.00000000      -0.67813596       0.12989377       0.38198994
H        0.00000000       0.00000000       0.00000000       0.38598950      -0.01916802       0.15696443
H        0.00000000       0.00000000       0.00000000       0.26128620       0.16325339      -0.10887976
H        0.00000000       0.00000000       0.00000000       0.02893879       0.01708452      -0.03391447
7
Lattice="529.1772105638412 0.0 0.0 0.0 529.1772105638412 0.0 0.0 0.0 529.1772105638412" Properties=species:S:1:pos:R:3:forces_component_raw:R:3 ipi_comment="Step:          40  Bead:       0 forces_component_raw{ase}  cell{ase}" pbc="T T T"
O        0.00000000       0.00000000       0.00000000       0.92395871      -0.13768303      -0.20204732
H        0.00000000       0.00000000       0.00000000      -0.39712029      -0.33963366      -0.42040785
H        0.00000000       0.00000000       0.00000000      -0.40338499      -0.00645256       0.24904231
O        0.00000000       0.00000000       0.00000000       0.21438392      -0.14857432       0.02683944
H        0.00000000       0.00000000       0.00000000      -0.51244012       0.60372172       0.54476149
H        0.00000000       0.00000000       0.00000000      -0.00638727      -0.22969866      -0.24296891
H        0.00000000       0.00000000       0.00000000       0.18099004       0.25832052       0.04478083
7
Lattice="529.1772105638412 0.0 0.0 0.0 529.1772105638412 0.0 0.0 0.0 529.1772105638412" Properties=species:S:1:pos:R:3:forces_component_raw:R:3 ipi_comment="Step:          60  Bead:       0 forces_component_raw{ase}  cell{ase}" pbc="T T T"
O        0.00000000       0.00000000       0.00000000       1.00810313      -0.44574576       0.18168397
H        0.00000000       0.00000000       0.00000000      -1.12259547      -0.93510896      -0.98518429
H        0.00000000       0.00000000       0.00000000       0.05029803       0.25611186       0.19556222
O        0.00000000       0.00000000       0.00000000      -0.10892941       0.35578775       0.37797459
H        0.00000000       0.00000000       0.00000000       0.21286704       0.34047688      -0.16702935
H        0.00000000       0.00000000       0.00000000      -0.31778435       0.05522637       0.21992233
H        0.00000000       0.00000000       0.00000000       0.27804103       0.37325186       0.17707054
7
Lattice="529.1772105638412 0.0 0.0 0.0 529.1772105638412 0.0 0.0 0.0 529.1772105638412" Properties=species:S:1:pos:R:3:forces_component_raw:R:3 ipi_comment="Step:          80  Bead:       0 forces_component_raw{ase}  cell{ase}" pbc="T T T"
O        0.00000000       0.00000000       0.00000000       1.35723259       1.78284072       2.10342995
H        0.00000000       0.00000000       0.00000000      -1.77329404      -0.57531991      -0.98027448
H        0.00000000       0.00000000       0.00000000       0.54757018      -0.10874541      -0.61632803
O        0.00000000       0.00000000       0.00000000       0.14230247      -0.11137379      -0.36724396
H        0.00000000       0.00000000       0.00000000      -0.15521090      -1.32234848      -0.57955060
H        0.00000000       0.00000000       0.00000000      -0.34336606       0.09956986       0.33929559
H        0.00000000       0.00000000       0.00000000       0.22476576       0.23537700       0.10067153
7
Lattice="529.1772105638412 0.0 0.0 0.0 529.1772105638412 0.0 0.0 0.0 529.1772105638412" Properties=species:S:1:pos:R:3:forces_component_raw:R:3 ipi_comment="Step:         100  Bead:       0 forces_component_raw{ase}  cell{ase}" pbc="T T T"
O        0.00000000       0.00000000       0.00000000       0.44396298       0.04788692       1.44343013
H        0.00000000       0.00000000       0.00000000      -1.77788893      -0.56471154      -0.68450703
H        0.00000000       0.00000000       0.00000000       1.08967973       0.57806936      -0.78225646
O        0.00000000       0.00000000       0.00000000      -0.09721750      -0.85926227      -0.64392307
H        0.00000000       0.00000000       0.00000000       0.51732023       0.66678065       0.50544194
H        0.00000000       0.00000000       0.00000000      -0.47211686       0.17156171       0.36018949
H        0.00000000       0.00000000       0.00000000       0.29626036      -0.04032483      -0.19837501
7
Lattice="529.1772105638412 0.0 0.0 0.0 529.1772105638412 0.0 0.0 0.0 529.1772105638412" Properties=species:S:1:pos:R:3:forces_component_raw:R:3 ipi_comment="Step:         120  Bead:       0 forces_component_raw{ase}  cell{ase}" pbc="T T T"
O        0.00000000       0.00000000       0.00000000       0.43331077       1.33602613       2.91521408
H        0.00000000       0.00000000       0.00000000      -1.22332918      -0.40392332      -0.84844452
H        0.00000000       0.00000000       0.00000000       0.87083911       0.07252843      -1.46260634
O        0.00000000       0.00000000       0.00000000       0.67927236      -0.32195422      -0.65273843
H        0.00000000       0.00000000       0.00000000      -0.50287588      -0.51825194      -0.08569563
H        0.00000000       0.00000000       0.00000000      -0.37969832      -0.32106745       0.17770395
H        0.00000000       0.00000000       0.00000000       0.12248115       0.15664237      -0.04343312
7
Lattice="529.1772105638412 0.0 0.0 0.0 529.1772105638412 0.0 0.0 0.0 529.1772105638412" Properties=species:S:1:pos:R:3:forces_component_raw:R:3 ipi_comment="Step:         140  Bead:       0 forces_component_raw{ase}  cell{ase}" pbc="T T T"
O        0.00000000       0.00000000       0.00000000      -1.13823189      -0.25356334       0.92842677
H        0.00000000       0.00000000       0.00000000      -0.80732136      -0.51987541       0.12155144
H        0.00000000       0.00000000       0.00000000       1.48424520       0.80252345      -0.68280289
O        0.00000000       0.00000000       0.00000000       0.09703571      -0.45894851      -0.74083188
H        0.00000000       0.00000000       0.00000000       0.40411858       0.30983679      -0.18290415
H        0.00000000       0.00000000       0.00000000      -0.03007399      -0.00817575       0.27137051
H        0.00000000       0.00000000       0.00000000      -0.00977224       0.12820277       0.28519020
7
Lattice="529.1772105638412 0.0 0.0 0.0 529.1772105638412 0.0 0.0 0.0 529.1772105638412" Properties=species:S:1:pos:R:3:forces_component_raw:R:3 ipi_comment="Step:         160  Bead:       0 forces_component_raw{ase}  cell{ase}" pbc="T T T"
O        0.00000000       0.00000000       0.00000000      -0.76003423       0.23424009       1.16032214
H        0.00000000       0.00000000       0.00000000       0.49111495       0.11670434      -0.29429496
H        0.00000000       0.00000000       0.00000000       0.34161121      -0.44124716      -0.98356319
O        0.00000000       0.00000000       0.00000000       0.04457844       0.05720366       0.10263591
H        0.00000000       0.00000000       0.00000000      -0.23160167       0.10003417       0.38362573
H        0.00000000       0.00000000       0.00000000      -0.05241252      -0.26973520      -0.28252517
H        0.00000000       0.00000000       0.00000000       0.16674382       0.20280010      -0.08620046
7
Lattice="529.1772105638412 0.0 0.0 0.0 529.1772105638412 0.0 0.0 0.0 529.1772105638412" Properties=species:S:1:pos:R:3:forces_component_raw:R:3 ipi_comment="Step:         180  Bead:       0 forces_component_raw{ase}  cell{ase}" pbc="T T T"
O        0.00000000       0.00000000       0.00000000      -0.33159074      -2.12136353      -1.53469876
H        0.00000000       0.00000000       0.00000000       0.81241750       1.27894574       0.66147439
H        0.00000000       0.00000000       0.00000000      -0.06204780       0.20128232       0.32128247
O        0.00000000       0.00000000       0.00000000      -0.69744319       0.25557110       0.85240332
H        0.00000000       0.00000000       0.00000000      -0.08519409       0.12011333      -0.22638413
H        0.00000000       0.00000000       0.00000000       0.31570827       0.41826453      -0.23487111
H        0.00000000       0.00000000       0.00000000       0.04815005      -0.15281349       0.16079381
7
Lattice="529.1772105638412 0.0 0.0 0.0 529.1772105638412 0.0 0.0 0.0 529.1772105638412" Properties=species:S:1:pos:R:3:forces_component_raw:R:3 ipi_comment="Step:         200  Bead:       0 forces_component_raw{ase}  cell{ase}" pbc="T T T"
O        0.00000000       0.00000000       0.00000000       0.28996575      -1.29363157      -0.95765174
H        0.00000000       0.00000000       0.00000000       1.32974756       1.30764018       0.00312614
H        0.00000000       0.00000000       0.00000000      -1.39263674      -0.35154833       0.59366459
O        0.00000000       0.00000000       0.00000000      -0.09071933       0.72037064       1.18121639
H        0.00000000       0.00000000       0.00000000      -0.08702979      -0.37992249      -0.18144465
H        0.00000000       0.00000000       0.00000000      -0.00313438       0.03561745      -0.44334878
H        0.00000000       0.00000000       0.00000000      -0.04619308      -0.03852588      -0.19556195
7
Lattice="529.1772105638412 0.0 0.0 0.0 529.1772105638412 0.0 0.0 0.0 529.1772105638412" Properties=species:S:1:pos:R:3:forces_component_raw:R:3 ipi_comment="Step:         220  Bead:       0 forces_component_raw{ase}  cell{ase}" pbc="T T T"
O        0.00000000       0.00000000       0.00000000       1.67246950      -1.50388154      -1.33533213
H        0.00000000       0.00000000       0.00000000       0.29107902       1.08541891       0.12481969
H        0.00000000       0.00000000       0.00000000      -2.29920629       0.41591889       1.23949854
O        0.00000000       0.00000000       0.00000000       0.32502497      -0.64962271      -0.40668238
H        0.00000000       0.00000000       0.00000000       0.12749575       0.60285630       0.58655517
H        0.00000000       0.00000000       0.00000000       0.17515459       0.23419314      -0.35123092
H        0.00000000       0.00000000       0.00000000      -0.29201753      -0.18488299       0.14237203
7
Lattice="529.1772105638412 0.0 0.0 0.0 529.1772105638412 0.0 0.0 0.0 529.1772105638412" Properties=species:S:1:pos:R:3:forces_component_raw:R:3 ipi_comment="Step:         240  Bead:       0 forces_component_raw{ase}  cell{ase}" pbc="T T T"
O        0.00000000       0.00000000       0.00000000       1.71632976       0.88074570       0.39614565
H        0.00000000       0.00000000       0.00000000       0.22323964       0.19091948      -0.12149179
H        0.00000000       0.00000000       0.00000000      -2.06144712      -0.11190908       0.62286133
O        0.00000000       0.00000000       0.00000000       0.60141162       0.53905446      -0.10078510
H        0.00000000       0.00000000       0.00000000      -0.14427805      -0.77589505      -0.42170873
H        0.00000000       0.00000000       0.00000000      -0.01572967      -0.23279359      -0.24927436
H        0.00000000       0.00000000       0.00000000      -0.31952617      -0.49012193      -0.12574700
7
Lattice="529.1772105638412 0.0 0.0 0.0 529.1772105638412 0.0 0.0 0.0 529.1772105638412" Properties=species:S:1:pos:R:3:forces_component_raw:R:3 ipi_comment="Step:         260  Bead:       0 forces_component_raw{ase}  cell{ase}" pbc="T T T"
O        0.00000000       0.00000000       0.00000000       0.82647415      -0.01352135      -0.47288577
H        0.00000000       0.00000000       0.00000000      -0.18642736      -0.19941162       0.31206788
H        0.00000000       0.00000000       0.00000000      -0.70254592       0.20752969       0.22115030
O        0.00000000       0.00000000       0.00000000       0.25000183      -0.09161094       0.02977686
H        0.00000000       0.00000000       0.00000000       0.02568942       0.58464129      -0.03598982
H        0.00000000       0.00000000       0.00000000      -0.03528811       0.11866456       0.04759890
H        0.00000000       0.00000000       0.00000000      -0.17790401      -0.60629164      -0.10171834
7
Lattice="529.1772105638412 0.0 0.0 0.0 529.1772105638412 0.0 0.0 0.0 529.1772105638412" Properties=species:S:1:pos:R:3:forces_component_raw:R:3 ipi_comment="Step:         280  Bead:       0 forces_component_raw{ase}  cell{ase}" pbc="T T T"
O        0.00000000       0.00000000       0.00000000      -0.35826113       1.23280829      -1.02010685
H        0.00000000       0.00000000       0.00000000      -0.18670693      -0.79216205       0.89863439
H        0.00000000       0.00000000       0.00000000       0.68724778      -0.22226540      -0.12430474
O        0.00000000       0.00000000       0.00000000       0.01577265       0.36406570       0.13323056
H        0.00000000       0.00000000       0.00000000      -0.05433491      -0.36128513      -0.01609000
H        0.00000000       0.00000000       0.00000000      -0.10280821      -0.09924658       0.25428967
H        0.00000000       0.00000000       0.00000000      -0.00090924      -0.12191483      -0.12565302
7
Lattice="529.1772105638412 0.0 0.0 0.0 529.1772105638412 0.0 0.0 0.0 529.1772105638412" Properties=species:S:1:pos:R:3:forces_component_raw:R:3 ipi_comment="Step:         300  Bead:       0 forces_component_raw{ase}  cell{ase}" pbc="T T T"
O        0.00000000       0.00000000       0.00000000      -1.06380975       0.86652110       0.47886078
H        0.00000000       0.00000000       0.00000000      -0.51356416      -1.39222131       0.23208291
H        0.00000000       0.00000000       0.00000000       1.66249319       0.03214303      -0.84754443
O        0.00000000       0.00000000       0.00000000      -0.03303502       0.08086151       0.02854283
H        0.00000000       0.00000000       0.00000000       0.02508191       0.14868780      -0.33338358
H        0.00000000       0.00000000       0.00000000      -0.07918414      -0.06379958       0.40562213
H        0.00000000       0.00000000       0.00000000       0.00201797       0.32780744       0.03581936
7
Lattice="529.1772105638412 0.0 0.0 0.0 529.1772105638412 0.0 0.0 0.0 529.1772105638412" Properties=species:S:1:pos:R:3:forces_component_raw:R:3 ipi_comment="Step:         320  Bead:       0 forces_component_raw{ase}  cell{ase}" pbc="T T T"
O        0.00000000       0.00000000       0.00000000      -1.27696862       0.72519005       1.02066295
H        0.00000000       0.00000000       0.00000000      -0.53587464      -1.24685851       0.00366703
H        0.00000000       0.00000000       0.00000000       2.00567180       0.18263489      -1.38057555
O        0.00000000       0.00000000       0.00000000       0.03038458       0.05605855      -0.18066497
H        0.00000000       0.00000000       0.00000000      -0.16522810      -0.20169626       0.24043677
H        0.00000000       0.00000000       0.00000000      -0.01464954      -0.33124118       0.33454833
H        0.00000000       0.00000000       0.00000000      -0.04333548       0.81591245      -0.03807456
7
Lattice="529.1772105638412 0.0 0.0 0.0 529.1772105638412 0.0 0.0 0.0 529.1772105638412" Properties=species:S:1:pos:R:3:forces_component_raw:R:3 ipi_comment="Step:         340  Bead:       0 forces_component_raw{ase}  cell{ase}" pbc="T T T"
O        0.00000000       0.00000000       0.00000000      -1.85318199       0.32469245       1.86268861
H        0.00000000       0.00000000       0.00000000      -0.43314099      -0.94908908      -0.11500633
H        0.00000000       0.00000000       0.00000000       2.07892038       0.53600702      -1.52198881
O        0.00000000       0.00000000       0.00000000       0.21285167      -1.31895444      -0.23494729
H        0.00000000       0.00000000       0.00000000       0.13926763       0.42466809      -0.14850798
H        0.00000000       0.00000000       0.00000000      -0.07232854      -0.00765167       0.46414805
H        0.00000000       0.00000000       0.00000000      -0.07238815       0.99032763      -0.30638626
7
Lattice="529.1772105638412 0.0 0.0 0.0 529.1772105638412 0.0 0.0 0.0 529.1772105638412" Properties=species:S:1:pos:R:3:forces_component_raw:R:3 ipi_comment="Step:         360  Bead:       0 forces_component_raw{ase}  cell{ase}" pbc="T T T"
O        0.00000000       0.00000000       0.00000000      -1.16172804       1.08519833       1.88549929
H        0.00000000       0.00000000       0.00000000      -0.43453990      -0.62939202       0.08818607
H        0.00000000       0.00000000       0.00000000       1.63546267       0.19737239      -1.61334374
O        0.00000000       0.00000000       0.00000000       0.36796412      -1.18591930      -0.96703479
H        0.00000000       0.00000000       0.00000000      -0.35176296      -0.09801719       0.42315315
H        0.00000000       0.00000000       0.00000000       0.05990941      -0.22490649       0.60018785
H        0.00000000       0.00000000       0.00000000      -0.11530529       0.85566428      -0.41664783
7
Lattice="529.1772105638412 0.0 0.0 0.0 529.1772105638412 0.0 0.0 0.0 529.1772105638412" Properties=species:S:1:pos:R:3:forces_component_raw:R:3 ipi_comment="Step:         380  Bead:       0 forces_component_raw{ase}  cell{ase}" pbc="T T T"
O        0.00000000       0.00000000       0.00000000      -0.73091849       0.49965059       1.19528683
H        0.00000000       0.00000000       0.00000000      -0.27388288      -0.33646166       0.04049138
H        0.00000000       0.00000000       0.00000000       0.68728646       0.31079298      -0.61118986
O        0.00000000       0.00000000       0.00000000      -0.14792116      -0.88759996      -0.50640927
H        0.00000000       0.00000000       0.00000000       0.29757852      -0.16592377      -0.51854570
H        0.00000000       0.00000000       0.00000000       0.17111233       0.05090829       0.71508650
H        0.00000000       0.00000000       0.00000000      -0.00325479       0.52863353      -0.31471988
7
Lattice="529.1772105638412 0.0 0.0 0.0 529.1772105638412 0.0 0.0 0.0 529.1772105638412" Properties=species:S:1:pos:R:3:forces_component_raw:R:3 ipi_comment="Step:         400  Bead:       0 forces_component_raw{ase}  cell{ase}" pbc="T T T"
O        0.00000000       0.00000000       0.00000000       0.58737231      -0.05805174      -0.82860307
H        0.00000000       0.00000000       0.00000000      -0.09974510      -0.04065100       0.07759073
H        0.00000000       0.00000000       0.00000000      -0.43293557      -0.05085938       0.47219745
O        0.00000000       0.00000000       0.00000000      -0.59508897       0.15198026      -0.44683123
H        0.00000000       0.00000000       0.00000000       0.12339357      -0.08135940       0.23043454
H        0.00000000       0.00000000       0.00000000       0.42155215      -0.05240903       0.42627605
H        0.00000000       0.00000000       0.00000000      -0.00454839       0.13135030       0.06893554
7
Lattice="529.1772105638412 0.0 0.0 0.0 529.1772105638412 0.0 0.0 0.0 529.1772105638412" Properties=species:S:1:pos:R:3:forces_component_raw:R:3 ipi_comment="Step:         420  Bead:       0 forces_component_raw{ase}  cell{ase}" pbc="T T T"
O        0.00000000       0.00000000       0.00000000       2.08933145      -0.25919329      -2.55805945
H        0.00000000       0.00000000       0.00000000       0.27115070       0.37118264      -0.05032698
H        0.00000000       0.00000000       0.00000000      -1.92161262      -0.46985732       2.14878510
O        0.00000000       0.00000000       0.00000000       0.02971014       1.14103350       0.71789980
H        0.00000000       0.00000000       0.00000000      -0.47691988      -0.06040766      -0.34026239
H        0.00000000       0.00000000       0.00000000       0.09051542      -0.17216421       0.13224655
H        0.00000000       0.00000000       0.00000000      -0.08217522      -0.55059366      -0.05028264
7
Lattice="529.1772105638412 0.0 0.0 0.0 529.1772105638412 0.0 0.0 0.0 529.1772105638412" Properties=species:S:1:pos:R:3:forces_component_raw:R:3 ipi_comment="Step:         440  Bead:       0 forces_component_raw{ase}  cell{ase}" pbc="T T T"
O        0.00000000       0.00000000       0.00000000       1.97762760      -0.94751072      -3.48762853
H        0.00000000       0.00000000       0.00000000       0.46792544       0.96181377       0.21049555
H        0.00000000       0.00000000       0.00000000      -2.31172914      -0.55351269       2.81771985
O        0.00000000       0.00000000       0.00000000      -0.49010913       1.22832643       0.20800610
H        0.00000000       0.00000000       0.00000000       0.27356147       0.02544635       0.21181318
H        0.00000000       0.00000000       0.00000000      -0.19487166       0.07071691      -0.54657319
H        0.00000000       0.00000000       0.00000000       0.27759543      -0.78528004       0.58616705
7
Lattice="529.1772105638412 0.0 0.0 0.0 529.1772105638412 0.0 0.0 0.0 529.1772105638412" Properties=species:S:1:pos:R:3:forces_component_raw:R:3 ipi_comment="Step:         460  Bead:       0 forces_component_raw{ase}  cell{ase}" pbc="T T T"
O        0.00000000       0.00000000       0.00000000       0.80849640      -0.60150527      -1.93624000
H        0.00000000       0.00000000       0.00000000       0.91854318       1.32930788       0.00635672
H        0.00000000       0.00000000       0.00000000      -1.69078808      -0.83620150       1.98780094
O        0.00000000       0.00000000       0.00000000       0.80472530       1.08909264       0.73234523
H        0.00000000       0.00000000       0.00000000      -0.23290606       0.20326101      -0.25334013
H        0.00000000       0.00000000       0.00000000      -0.70899683      -0.22803989      -0.55505748
H        0.00000000       0.00000000       0.00000000       0.10092609      -0.95591486       0.01813472
7
Lattice="529.1772105638412 0.0 0.0 0.0 529.1772105638412 0.0 0.0 0.0 529.1772105638412" Properties=species:S:1:pos:R:3:forces_component_raw:R:3 ipi_comment="Step:         480  Bead:       0 forces_component_raw{ase}  cell{ase}" pbc="T T T"
O        0.00000000       0.00000000       0.00000000      -0.34774785      -0.63840840      -1.05818114
H        0.00000000       0.00000000       0.00000000       0.57008398       1.11506825       0.54526069
H        0.00000000       0.00000000       0.00000000      -0.34738650       0.00630504       0.81706921
O        0.00000000       0.00000000       0.00000000       0.55123786       0.16332785      -0.30877930
H        0.00000000       0.00000000       0.00000000      -0.05335220      -0.10685815       0.41905058
H        0.00000000       0.00000000       0.00000000      -0.74169848       0.00121801      -0.81704246
H        0.00000000       0.00000000       0.00000000       0.36886318      -0.54065260       0.40262242
7
Lattice="529.1772105638412 0.0 0.0 0.0 529.1772105638412 0.0 0.0 0.0 529.1772105638412" Properties=species:S:1:pos:R:3:forces_component_raw:R:3 ipi_comment="Step:         500  Bead:       0 forces_component_raw{ase}  cell{ase}" pbc="T T T"
O        0.00000000       0.00000000       0.00000000      -1.43531161       0.08307753       1.95340246
H        0.00000000       0.00000000       0.00000000       0.50846020       0.33981255      -0.09505308
H        0.00000000       0.00000000       0.00000000       0.44813884       0.26946271      -0.97548553
O        0.00000000       0.00000000       0.00000000       0.57211934       0.47102577       0.63408638
H        0.00000000       0.00000000       0.00000000       0.32504638      -0.26068337      -0.59908950
H        0.00000000       0.00000000       0.00000000      -0.49092984      -0.40596324      -0.67102576
H        0.00000000       0.00000000       0.00000000       0.07247671      -0.49673194      -0.24683496
7
Lattice="529.1772105638412 0.0 0.0 0.0 529.1772105638412 0.0 0.0 0.0 529.1772105638412" Properties=species:S:1:pos:R:3:forces_component_raw:R:3 ipi_comment="Step:         520  Bead:       0 forces_component_raw{ase}  cell{ase}" pbc="T T T"
O        0.00000000       0.00000000       0.00000000      -0.06288208      -0.51316569       1.34681475
H        0.00000000       0.00000000       0.00000000      -0.51304594      -0.17790200       0.26452312
H        0.00000000       0.00000000       0.00000000       0.76227197       0.63718615      -1.91603577
O        0.00000000       0.00000000       0.00000000       0.61804194      -0.54351294      -0.32690214
H        0.00000000       0.00000000       0.00000000      -0.39173824       0.31882558       0.60960889
H        0.00000000       0.00000000       0.00000000      -0.36874062       0.13781810      -0.07769388
H        0.00000000       0.00000000       0.00000000      -0.04390703       0.14075080       0.09968504
7
Lattice="529.1772105638412 0.0 0.0 0.0 529.1772105638412 0.0 0.0 0.0 529.1772105638412" Properties=species:S:1:pos:R:3:forces_component_raw:R:3 ipi_comment="Step:         540  Bead:       0 forces_component_raw{ase}  cell{ase}" pbc="T T T"
O        0.00000000       0.00000000       0.00000000       0.89747311      -1.03244225       1.79110768
H        0.00000000       0.00000000       0.00000000      -1.21553476      -0.58779500      -0.20049942
H        0.00000000       0.00000000       0.00000000       0.38100125       0.99313644      -2.08609583
O        0.00000000       0.00000000       0.00000000      -0.56934505       0.42287735       0.31098737
H        0.00000000       0.00000000       0.00000000       0.42442256       0.21203870       0.05644482
H        0.00000000       0.00000000       0.00000000       0.65250671      -0.28092501       0.19568672
H        0.00000000       0.00000000       0.00000000      -0.57052381       0.27310977      -0.06763134
7
Lattice="529.1772105638412 0.0 0.0 0.0 529.1772105638412 0.0 0.0 0.0 529.1772105638412" Properties=species:S:1:pos:R:3:forces_component_raw:R:3 ipi_comment="Step:         560  Bead:       0 forces_component_raw{ase}  cell{ase}" pbc="T T T"
O        0.00000000       0.00000000       0.00000000       1.09417371      -0.24161519       1.75828643
H        0.00000000       0.00000000       0.00000000      -1.61524513      -1.07640031       0.01416324
H        0.00000000       0.00000000       0.00000000       0.80003713       1.17395495      -2.11011320
O        0.00000000       0.00000000       0.00000000      -0.69159057      -1.40217641      -0.77830881
H        0.00000000       0.00000000       0.00000000      -0.12246135      -0.18820807       0.06762678
H        0.00000000       0.00000000       0.00000000       0.68397798       0.83207432       0.64848841
H        0.00000000       0.00000000       0.00000000      -0.14889176       0.90237070       0.39985715
7
Lattice="529.1772105638412 0.0 0.0 0.0 529.1772105638412 0.0 0.0 0.0 529.1772105638412" Properties=species:S:1:pos:R:3:forces_component_raw:R:3 ipi_comment="Step:         580  Bead:       0 forces_component_raw{ase}  cell{ase}" pbc="T T T"
O        0.00000000       0.00000000       0.00000000       0.41737943       0.72781707       2.16571693
H        0.00000000       0.00000000       0.00000000      -1.15430799      -1.66392761      -0.65403361
H        0.00000000       0.00000000       0.00000000       0.71229365       0.80911609      -1.68274433
O        0.00000000       0.00000000       0.00000000      -0.38369708      -0.13620542      -0.15734120
H        0.00000000       0.00000000       0.00000000       0.00204930       0.00297749       0.10896476
H        0.00000000       0.00000000       0.00000000       1.44604033       0.03358944       0.66303455
H        0.00000000       0.00000000       0.00000000      -1.03975762       0.22663293      -0.44359710
7
Lattice="529.1772105638412 0.0 0.0 0.0 529.1772105638412 0.0 0.0 0.0 529.1772105638412" Properties=species:S:1:pos:R:3:forces_component_raw:R:3 ipi_comment="Step:         600  Bead:       0 forces_component_raw{ase}  cell{ase}" pbc="T T T"
O        0.00000000       0.00000000       0.00000000      -0.09126839       1.61680426       1.77469903
H        0.00000000       0.00000000       0.00000000      -0.63796012      -1.74389675      -0.57213750
H        0.00000000       0.00000000       0.00000000       0.50473668       0.40346884      -0.79831001
O        0.00000000       0.00000000       0.00000000      -0.12770048      -2.28385845      -1.07166369