7
Lattice="529.1772105638412 0.0 0.0 0.0 529.1772105638412 0.0 0.0 0.0 529.1772105638412" Properties=species:S:1:pos:R:3:forces_component_raw:R:3 ipi_comment="Step:           0  Bead:       0 forces_component_raw{ase}  cell{ase}" pbc="T T T"
O        0.00000000       0.00000000       0.00000000      -1.22967449      -1.36141791      -1.12562699
H        0.00000000       0.00000000       0.00000000       1.98404883       1.67061842       1.47843340
H        0.00000000       0.00000000       0.00000000      -0.68506130       0.54521300       0.36285911
O        0.00000000       0.00000000       0.00000000      -0.00244617      -0.25569848       0.08339085
H        0.00000000       0.00000000       0.00000000      -0.12589346      -0.48867007      -0.52926519
H        0.00000000       0.00000000       0.00000000       0.43110689       0.08131900      -0.16005188
H        0.00000000       0.00000000       0.00000000      -0.37208030      -0.19136396      -0.10973929
7
Lattice="529.1772105638412 0.0 0.0 0.0 529.1772105638412 0.0 0.0 0.0 529.1772105638412" Properties=species:S:1:pos:R:3:forces_component_raw:R:3 ipi_comment="Step:          20  Bead:       0 forces_component_raw{ase}  cell{ase}" pbc="T T T"
O        0.00000000       0.00000000       0.00000000       0.66194950      -1.06405093      -1.72463772
H        0.00000000       0.00000000       0.00000000       0.96836961       0.41152689       0.52612325
H        0.00000000       0.00000000       0.00000000      -1.78849155       0.43478464       0.82091483
O        0.00000000       0.00000000       0.00000000      -0.65528767       0.30477145       0.72785206
H        0.00000000       0.00000000       0.00000000       0.64444668       0.08230329       0.25444385
H        0.00000000       0.00000000       0.00000000       0.69711598       0.25865631      -0.36226463
H        0.00000000       0.00000000       0.00000000      -0.52810254      -0.42799165      -0.24243164
7
Lattice="529.1772105638412 0.0 0.0 0.0 529.1772105638412 0.0 0.0 0.0 529.1772105638412" Properties=species:S:1:pos:R:3:forces_component_raw:R:3 ipi_comment="Step:          40  Bead:       0 forces_component_raw{ase}  cell{ase}" pbc="T T T"
O        0.00000000       0.00000000       0.00000000       1.06520563      -0.07695830      -0.12854349
H        0.00000000       0.00000000       0.00000000      -0.13434598      -0.10240621      -0.26559512
H        0.00000000       0.00000000       0.00000000      -0.59376430      -0.12810839       0.14793108
O        0.00000000       0.00000000       0.00000000      -0.04967950       0.39544511       0.51794272
H        0.00000000       0.00000000       0.00000000      -0.64732648       0.14255905       0.19242864
H        0.00000000       0.00000000       0.00000000       0.13944587      -0.30914503      -0.37068074
H        0.00000000       0.00000000       0.00000000       0.22046475       0.07861376      -0.09348308
7
Lattice="529.1772105638412 0.0 0.0 0.0 529.1772105638412 0.0 0.0 0.0 529.1772105638412" Properties=species:S:1:pos:R:3:forces_component_raw:R:3 ipi_comment="Step:          60  Bead:       0 forces_component_raw{ase}  cell{ase}" pbc="T T T"
O        0.00000000       0.00000000       0.00000000       0.04736772       0.72494448       1.67786577
H        0.00000000       0.00000000       0.00000000      -1.20278689      -0.84203058      -1.30110672
H        0.00000000       0.00000000       0.00000000       0.61135637       0.46252983      -0.04256697
O        0.00000000       0.00000000       0.00000000      -1.32130138      -1.09360899       0.43630726
H        0.00000000       0.00000000       0.00000000       0.61706894      -0.41087645      -0.49063812
H        0.00000000       0.00000000       0.00000000       0.69150945       0.13744371      -0.44490251
H        0.00000000       0.00000000       0.00000000       0.55678579       1.02159800       0.16504129
7
Lattice="529.1772105638412 0.0 0.0 0.0 529.1772105638412 0.0 0.0 0.0 529.1772105638412" Properties=species:S:1:pos:R:3:forces_component_raw:R:3 ipi_comment="Step:          80  Bead:       0 forces_component_raw{ase}  cell{ase}" pbc="T T T"
O        0.00000000       0.00000000       0.00000000       0.61215102      -0.10735831       2.01224852
H        0.00000000       0.00000000       0.00000000      -1.52875611      -0.65773905      -1.92649024
H        0.00000000       0.00000000       0.00000000       1.23716950       0.46049133      -0.64818109
O        0.00000000       0.00000000       0.00000000      -0.38898903      -1.00460696      -0.06655359
H        0.00000000       0.00000000       0.00000000      -0.47205101      -0.12409867       0.59466930
H        0.00000000       0.00000000       0.00000000      -0.09836367       0.07261591       0.10534167
H        0.00000000       0.00000000       0.00000000       0.63883929       1.36069574      -0.07103458
7
Lattice="529.1772105638412 0.0 0.0 0.0 529.1772105638412 0.0 0.0 0.0 529.1772105638412" Properties=species:S:1:pos:R:3:forces_component_raw:R:3 ipi_comment="Step:         100  Bead:       0 forces_component_raw{ase}  cell{ase}" pbc="T T T"
O        0.00000000       0.00000000       0.00000000       0.69753262      -0.27706634       2.62200241
H        0.00000000       0.00000000       0.00000000      -1.95443912      -0.13954213      -1.85378338
H        0.00000000       0.00000000       0.00000000       1.32997523       0.46866774      -0.60213259
O        0.00000000       0.00000000       0.00000000      -0.42271923      -1.65888000      -0.04412991
H        0.00000000       0.00000000       0.00000000      -0.12908493       0.50533524       0.17993047
H        0.00000000       0.00000000       0.00000000      -0.70954012      -0.41751417       0.59368627
H        0.00000000       0.00000000       0.00000000       1.18827554       1.51899966      -0.89557325
7
Lattice="529.1772105638412 0.0 0.0 0.0 529.1772105638412 0.0 0.0 0.0 529.1772105638412" Properties=species:S:1:pos:R:3:forces_component_raw:R:3 ipi_comment="Step:         120  Bead:       0 forces_component_raw{ase}  cell{ase}" pbc="T T T"
O        0.00000000       0.00000000       0.00000000       0.44190496       0.72432589       2.30314953
H        0.00000000       0.00000000       0.00000000      -1.99354841      -0.03887109      -1.49054830
H        0.00000000       0.00000000       0.00000000       1.42895779      -0.06915384      -0.45642049
O        0.00000000       0.00000000       0.00000000       1.71243608      -2.61540351      -1.22355619
H        0.00000000       0.00000000       0.00000000       0.13847041      -0.49626326      -0.07459988
H        0.00000000       0.00000000       0.00000000      -1.28707678       0.63835361       0.71956672
H        0.00000000       0.00000000       0.00000000      -0.44114405       1.85701219       0.22240860
7
Lattice="529.1772105638412 0.0 0.0 0.0 529.1772105638412 0.0 0.0 0.0 529.1772105638412" Properties=species:S:1:pos:R:3:forces_component_raw:R:3 ipi_comment="Step:         140  Bead:       0 forces_component_raw{ase}  cell{ase}" pbc="T T T"
O        0.00000000       0.00000000       0.00000000      -0.67099965      -0.18594210       1.02201521
H        0.00000000       0.00000000       0.00000000      -0.87929137      -0.00403669      -0.81762867
H        0.00000000       0.00000000       0.00000000       1.62515270      -0.37638877      -0.48125377
O        0.00000000       0.00000000       0.00000000      -0.47734199       1.14097799       0.38893778
H        0.00000000       0.00000000       0.00000000       0.14224342       0.02460134       0.01146554
H        0.00000000       0.00000000       0.00000000      -0.40858107      -1.15515195       0.13941397
H        0.00000000       0.00000000       0.00000000       0.66881795       0.55594017      -0.26295006
7
Lattice="529.1772105638412 0.0 0.0 0.0 529.1772105638412 0.0 0.0 0.0 529.1772105638412" Properties=species:S:1:pos:R:3:forces_component_raw:R:3 ipi_comment="Step:         160  Bead:       0 forces_component_raw{ase}  cell{ase}" pbc="T T T"
O        0.00000000       0.00000000       0.00000000      -0.96922083      -0.17251787      -0.03370640
H        0.00000000       0.00000000       0.00000000       0.17086007       0.10594198       0.28819724
H        0.00000000       0.00000000       0.00000000       0.99168692      -0.52963419      -0.31110369
O        0.00000000       0.00000000       0.00000000       0.74199543      -0.17734068      -0.85881999
H        0.00000000       0.00000000       0.00000000      -0.18508905       0.55428207       0.30671538
H        0.00000000       0.00000000       0.00000000      -0.12182393       0.58815172      -0.05463390
H        0.00000000       0.00000000       0.00000000      -0.62840863      -0.36888304       0.66335135
7
Lattice="529.1772105638412 0.0 0.0 0.0 529.1772105638412 0.0 0.0 0.0 529.1772105638412" Properties=species:S:1:pos:R:3:forces_component_raw:R:3 ipi_comment="Step:         180  Bead:       0 forces_component_raw{ase}  cell{ase}" pbc="T T T"
O        0.00000000       0.00000000       0.00000000      -0.64914311      -0.37337076      -2.04635525
H        0.00000000       0.00000000       0.00000000       0.33284325       0.09047154       1.61926948
H        0.00000000       0.00000000       0.00000000       0.22937381      -0.15062196       0.12631383
O        0.00000000       0.00000000       0.00000000      -2.47432834       1.07664812       1.17710591
H        0.00000000       0.00000000       0.00000000       0.31457204      -0.10999726      -0.13049380
H        0.00000000       0.00000000       0.00000000       1.63381816      -0.04553878      -0.73093376
H        0.00000000       0.00000000       0.00000000       0.61286418      -0.48759089      -0.01490641
7
Lattice="529.1772105638412 0.0 0.0 0.0 529.1772105638412 0.0 0.0 0.0 529.1772105638412" Properties=species:S:1:pos:R:3:forces_component_raw:R:3 ipi_comment="Step:         200  Bead:       0 forces_component_raw{ase}  cell{ase}" pbc="T T T"
O        0.00000000       0.00000000       0.00000000       0.06869829       0.41497355      -2.45300081
H        0.00000000       0.00000000       0.00000000      -0.11375597       0.05442099       2.49784053
H        0.00000000       0.00000000       0.00000000      -0.16591416       0.16532806       0.09159456
O        0.00000000       0.00000000       0.00000000      -0.69111572      -0.12726665       0.03429691
H        0.00000000       0.00000000       0.00000000      -0.14640450      -0.14026338       0.30329561
H        0.00000000       0.00000000       0.00000000       1.42122915       0.74409954      -1.33653202
H        0.00000000       0.00000000       0.00000000      -0.37273710      -1.11129211       0.86250522
7
Lattice="529.1772105638412 0.0 0.0 0.0 529.1772105638412 0.0 0.0 0.0 529.1772105638412" Properties=species:S:1:pos:R:3:forces_component_raw:R:3 ipi_comment="Step:         220  Bead:       0 forces_component_raw{ase}  cell{ase}" pbc="T T T"
O        0.00000000       0.00000000       0.00000000       1.26202920       0.36549843      -1.03902081
H        0.00000000       0.00000000       0.00000000      -0.68592851      -0.39140860       2.22516747
H        0.00000000       0.00000000       0.00000000      -0.71139630       0.84281705      -0.70594322
O        0.00000000       0.00000000       0.00000000      -1.29798792       1.00075490      -0.04729042
H        0.00000000       0.00000000       0.00000000      -0.28511548       0.08295090      -0.20889640
H        0.00000000       0.00000000       0.00000000       1.18572233      -0.25204851      -0.69325329
H        0.00000000       0.00000000       0.00000000       0.53267667      -1.64856417       0.46923666
7
Lattice="529.1772105638412 0.0 0.0 0.0 529.1772105638412 0.0 0.0 0.0 529.1772105638412" Properties=species:S:1:pos:R:3:forces_component_raw:R:3 ipi_comment="Step:         240  Bead:       0 forces_component_raw{ase}  cell{ase}" pbc="T T T"
O        0.00000000       0.00000000       0.00000000       1.78585902      -0.67827634      -0.19590483
H        0.00000000       0.00000000       0.00000000      -0.96112366      -0.24609239       1.18617366
H        0.00000000       0.00000000       0.00000000      -0.94135713       1.11870354      -0.80392815
O        0.00000000       0.00000000       0.00000000      -0.25716108       0.87942559      -0.54454640
H        0.00000000       0.00000000       0.00000000       0.04447567       0.00886726      -0.05325725
H        0.00000000       0.00000000       0.00000000       0.45566602       0.46206719      -0.57554725
H        0.00000000       0.00000000       0.00000000      -0.12635883      -1.54469484       0.98701020
7
Lattice="529.1772105638412 0.0 0.0 0.0 529.1772105638412 0.0 0.0 0.0 529.1772105638412" Properties=species:S:1:pos:R:3:forces_component_raw:R:3 ipi_comment="Step:         260  Bead:       0 forces_component_raw{ase}  cell{ase}" pbc="T T T"
O        0.00000000       0.00000000       0.00000000       0.49945893      -1.58957901       0.66455299
H        0.00000000       0.00000000       0.00000000       0.10060648      -0.24292329       0.48369673
H        0.00000000       0.00000000       0.00000000      -0.47902517       1.39960203      -1.33403873
O        0.00000000       0.00000000       0.00000000      -0.18703968       2.34146185      -0.35273395
H        0.00000000       0.00000000       0.00000000      -0.02465956      -0.15653247      -0.04461699
H        0.00000000       0.00000000       0.00000000      -0.15007212      -0.49057199       0.33784463
H        0.00000000       0.00000000       0.00000000       0.24073113      -1.26145712       0.24529533
7
Lattice="529.1772105638412 0.0 0.0 0.0 529.1772105638412 0.0 0.0 0.0 529.1772105638412" Properties=species:S:1:pos:R:3:forces_component_raw:R:3 ipi_comment="Step:         280  Bead:       0 forces_component_raw{ase}  cell{ase}" pbc="T T T"
O        0.00000000       0.00000000       0.00000000       0.27874160      -2.15882584       0.52233922
H        0.00000000       0.00000000       0.00000000       0.67289067       0.54804252      -0.84700356
H        0.00000000       0.00000000       0.00000000      -0.45212283       0.54079397      -0.33828695
O        0.00000000       0.00000000       0.00000000       0.20367446      -0.30638738      -0.07754219
H        0.00000000       0.00000000       0.00000000      -0.25652844       0.30325800       0.26254188
H        0.00000000       0.00000000       0.00000000      -0.21673122       0.37258838       0.25238904
H        0.00000000       0.00000000       0.00000000      -0.22992424       0.70053036       0.22556254
7
Lattice="529.1772105638412 0.0 0.0 0.0 529.1772105638412 0.0 0.0 0.0 529.1772105638412" Properties=species:S:1:pos:R:3:forces_component_raw:R:3 ipi_comment="Step:         300  Bead:       0 forces_component_raw{ase}  cell{ase}" pbc="T T T"
O        0.00000000       0.00000000       0.00000000      -0.90308132       0.80311514       1.38436178
H        0.00000000       0.00000000       0.00000000       0.94685525      -0.12082794      -1.19335694
H        0.00000000       0.00000000       0.00000000      -0.11109423       0.07432347       0.01740672
O        0.00000000       0.00000000       0.00000000      -0.41014376      -1.05451335       0.78746316
H        0.00000000       0.00000000       0.00000000       0.26010265      -1.00918732      -0.41674410
H        0.00000000       0.00000000       0.00000000      -0.03338139      -0.22492629       0.13889340
H        0.00000000       0.00000000       0.00000000       0.25074280       1.53201628      -0.71802402
7
Lattice="529.1772105638412 0.0 0.0 0.0 529.1772105638412 0.0 0.0 0.0 529.1772105638412" Properties=species:S:1:pos:R:3:forces_component_raw:R:3 ipi_comment="Step:         320  Bead:       0 forces_component_raw{ase}  cell{ase}" pbc="T T T"
O        0.00000000       0.00000000       0.00000000      -0.94537572       0.39753852       0.29835563
H        0.00000000       0.00000000       0.00000000       1.04192983       0.10653525      -1.11019256
H        0.00000000       0.00000000       0.00000000      -0.06960576      -0.80999793       0.62550446
O        0.00000000       0.00000000       0.00000000      -0.09626477      -2.92349162       0.28810149
H        0.00000000       0.00000000       0.00000000       0.17563273       0.65965615       0.36671472
H        0.00000000       0.00000000       0.00000000       0.10353298       0.43407107       0.05212706
H        0.00000000       0.00000000       0.00000000      -0.20984931       2.13568858      -0.52061079
7
Lattice="529.1772105638412 0.0 0.0 0.0 529.1772105638412 0.0 0.0 0.0 529.1772105638412" Properties=species:S:1:pos:R:3:forces_component_raw:R:3 ipi_comment="Step:         340  Bead:       0 forces_component_raw{ase}  cell{ase}" pbc="T T T"
O        0.00000000       0.00000000       0.00000000       0.37449816       2.29494566      -0.42423094
H        0.00000000       0.00000000       0.00000000      -0.14543640      -0.23525538       0.07996819
H        0.00000000       0.00000000       0.00000000      -0.11826308      -1.90412498       0.63326465
O        0.00000000       0.00000000       0.00000000      -0.29927996      -0.76211261       0.97855119
H        0.00000000       0.00000000       0.00000000      -0.42500862      -0.23402048      -0.43108854
H        0.00000000       0.00000000       0.00000000       0.25830659      -0.63265400      -0.07789959
H        0.00000000       0.00000000       0.00000000       0.35518331       1.47322179      -0.75856495
7
Lattice="529.1772105638412 0.0 0.0 0.0 529.1772105638412 0.0 0.0 0.0 529.1772105638412" Properties=species:S:1:pos:R:3:forces_component_raw:R:3 ipi_comment="Step:         360  Bead:       0 forces_component_raw{ase}  cell{ase}" pbc="T T T"
O        0.00000000       0.00000000       0.00000000       1.90331500       0.99757025      -0.95246991
H        0.00000000       0.00000000       0.00000000      -1.18028622       0.34583827       0.55418815
H        0.00000000       0.00000000       0.00000000      -0.88581731      -1.07433900       0.64999460
O        0.00000000       0.00000000       0.00000000       0.95508087      -0.61044397      -0.07849426
H        0.00000000       0.00000000       0.00000000       0.29292613      -0.12641292      -0.26653327
H        0.00000000       0.00000000       0.00000000      -0.66394947       0.19759831       0.10582376
H        0.00000000       0.00000000       0.00000000      -0.42126900       0.27018906      -0.01250907
7
Lattice="529.1772105638412 0.0 0.0 0.0 529.1772105638412 0.0 0.0 0.0 529.1772105638412" Properties=species:S:1:pos:R:3:forces_component_raw:R:3 ipi_comment="Step:         380  Bead:       0 forces_component_raw{ase}  cell{ase}" pbc="T T T"
O        0.00000000       0.00000000       0.00000000       1.52198733       0.63766217      -0.79668119
H        0.00000000       0.00000000       0.00000000      -1.45299596      -0.17245812       0.39852959
H        0.00000000       0.00000000       0.00000000       0.01489943      -0.77749808       0.04944198
O        0.00000000       0.00000000       0.00000000      -0.22761925       1.03782298      -0.31105285
H        0.00000000       0.00000000       0.00000000       0.27562542      -0.13398694       0.20601948
H        0.00000000       0.00000000       0.00000000      -0.40039136      -0.41137621       0.38504552
H        0.00000000       0.00000000       0.00000000       0.26849439      -0.18016580       0.06869747
7
Lattice="529.1772105638412 0.0 0.0 0.0 529.1772105638412 0.0 0.0 0.0 529.1772105638412" Properties=species:S:1:pos:R:3:forces_component_raw:R:3 ipi_comment="Step:         400  Bead:       0 forces_component_raw{ase}  cell{ase}" pbc="T T T"
O        0.00000000       0.00000000       0.00000000       0.79429464      -2.24929735      -0.59833883
H        0.00000000       0.00000000       0.00000000      -0.73243764       0.43923079       0.05405497
H        0.00000000       0.00000000       0.00000000       0.20674072       1.21495340      -0.04315512
O        0.00000000       0.00000000       0.00000000      -0.22720194       1.59369303      -0.14666468
H        0.00000000       0.00000000       0.00000000      -0.08308991       0.07232191       0.07056437
H        0.00000000       0.00000000       0.00000000       0.10406710       0.13270121      -0.04810412
H        0.00000000       0.00000000       0.00000000      -0.06237297      -1.20360300       0.71164341
7
Lattice="529.1772105638412 0.0 0.0 0.0 529.1772105638412 0.0 0.0 0.0 529.1772105638412" Properties=species:S:1:pos:R:3:forces_component_raw:R:3 ipi_comment="Step:         420  Bead:       0 forces_component_raw{ase}  cell{ase}" pbc="T T T"
O        0.00000000       0.00000000       0.00000000      -1.52304226      -2.80905996      -1.21025487
H        0.00000000       0.00000000       0.00000000       0.45031875      -0.05006784       0.26656109
H        0.00000000       0.00000000       0.00000000       1.18903187       2.16862819       0.23343070
O        0.00000000       0.00000000       0.00000000      -0.39337082       1.96924228       0.03640291
H        0.00000000       0.00000000       0.00000000       0.05551066      -0.11780103       0.08499399
H        0.00000000       0.00000000       0.00000000       0.60252717       0.26900460      -0.42068365
H        0.00000000       0.00000000       0.00000000      -0.38097537      -1.42994625       1.00954983
7
Lattice="529.1772105638412 0.0 0.0 0.0 529.1772105638412 0.0 0.0 0.0 529.1772105638412" Properties=species:S:1:pos:R:3:forces_component_raw:R:3 ipi_comment="Step:         440  Bead:       0 forces_component_raw{ase}  cell{ase}" pbc="T T T"
O        0.00000000       0.00000000       0.00000000      -1.65121186      -1.25899616      -0.25728807
H        0.00000000       0.00000000       0.00000000       0.63513771       0.13553493       0.20932146
H        0.00000000       0.00000000       0.00000000       0.83905161       1.67219049       0.36195819
O        0.00000000       0.00000000       0.00000000      -0.61981642       2.03113299      -0.42419582
H        0.00000000       0.00000000       0.00000000      -0.01036782      -0.45886643      -0.21046750
H        0.00000000       0.00000000       0.00000000       1.08713089      -0.14285892      -0.66880492
H        0.00000000       0.00000000       0.00000000      -0.27992410      -1.97813691       0.98947667
7
Lattice="529.1772105638412 0.0 0.0 0.0 529.1772105638412 0.0 0.0 0.0 529.1772105638412" Properties=species:S:1:pos:R:3:forces_component_raw:R:3 ipi_comment="Step:         460  Bead:       0 forces_component_raw{ase}  cell{ase}" pbc="T T T"
O        0.00000000       0.00000000       0.00000000      -0.47934932       0.66109242       0.48875890
H        0.00000000       0.00000000       0.00000000       0.29170707      -0.32200305      -0.04546430
H        0.00000000       0.00000000       0.00000000       0.12998949       0.20789072       0.16322159
O        0.00000000       0.00000000       0.00000000      -1.08443224      -1.24480322      -0.34897371
H        0.00000000       0.00000000       0.00000000      -0.24360574       0.83358661       0.35417574
H        0.00000000       0.00000000       0.00000000       1.71196259       0.43597245      -0.96117019
H        0.00000000       0.00000000       0.00000000      -0.32627184      -0.57173592       0.34945196
7
Lattice="529.1772105638412 0.0 0.0 0.0 529.1772105638412 0.0 0.0 0.0 529.1772105638412" Properties=species:S:1:pos:R:3:forces_component_raw:R:3 ipi_comment="Step:         480  Bead:       0 forces_component_raw{ase}  cell{ase}" pbc="T T T"
O        0.00000000       0.00000000       0.00000000       0.97016129       1.67965683       0.96701416
H        0.00000000       0.00000000       0.00000000       0.13247470      -0.04055386      -0.06179079
H        0.00000000       0.00000000       0.00000000      -1.55676761      -0.98742309      -0.26750479
O        0.00000000       0.00000000       0.00000000      -1.59790465      -0.16758387       0.81706714
H        0.00000000       0.00000000       0.00000000       0.55652714      -0.60443304      -0.43696510
H        0.00000000       0.00000000       0.00000000       1.11614799      -0.29351777      -0.79191401
H        0.00000000       0.00000000       0.00000000       0.37936114       0.41385480      -0.22590661
7
Lattice="529.1772105638412 0.0 0.0 0.0 529.1772105638412 0.0 0.0 0.0 529.1772105638412" Properties=species:S:1:pos:R:3:forces_component_raw:R:3 ipi_comment="Step:         500  Bead:       0 forces_component_raw{ase}  cell{ase}" pbc="T T T"
O        0.00000000       0.00000000       0.00000000       3.36638500      -0.29717687      -0.06729101
H        0.00000000       0.00000000       0.00000000      -0.79855163       0.57469250      -0.28551322
H        0.00000000       0.00000000       0.00000000      -2.33654416      -1.27426267      -0.33555622
O        0.00000000       0.00000000       0.00000000       0.17822092      -0.33918378      -0.27175392
H        0.00000000       0.00000000       0.00000000       0.06817721       0.25198837       0.28614864
H        0.00000000       0.00000000       0.00000000      -0.21481853       0.19730780       0.17383530
H        0.00000000       0.00000000       0.00000000      -0.26286880       0.88663465       0.50013045
7
Lattice="529.1772105638412 0.0 0.0 0.0 529.1772105638412 0.0 0.0 0.0 529.1772105638412" Properties=species:S:1:pos:R:3:forces_component_raw:R:3 ipi_comment="Step:         520  Bead:       0 forces_component_raw{ase}  cell{ase}" pbc="T T T"
O        0.00000000       0.00000000       0.00000000       2.49020603       0.04577045       0.36658890
H        0.00000000       0.00000000       0.00000000       0.00247739       0.11414051      -0.16780220
H        0.00000000       0.00000000       0.00000000      -2.14689377      -1.18290241      -0.71497225
O        0.00000000       0.00000000       0.00000000       0.24293348       0.69289880       0.25595119
H        0.00000000       0.00000000       0.00000000      -0.03475199       0.39660226      -0.32280705
H        0.00000000       0.00000000       0.00000000      -1.39931313      -0.77244687       1.00889414
H        0.00000000       0.00000000       0.00000000       0.84534199       0.70593727      -0.42585272
7
Lattice="529.1772105638412 0.0 0.0 0.0 529.1772105638412 0.0 0.0 0.0 529.1772105638412" Properties=species:S:1:pos:R:3:forces_component_raw:R:3 ipi_comment="Step:         540  Bead:       0 forces_component_raw{ase}  cell{ase}" pbc="T T T"
O        0.00000000       0.00000000       0.00000000       0.52795118       1.60113297      -0.22978924
H        0.00000000       0.00000000       0.00000000       0.33082453      -0.50290358       0.38030509
H        0.00000000       0.00000000       0.00000000      -0.79450684      -1.18896438      -0.67193349
O        0.00000000       0.00000000       0.00000000       0.84328352      -1.85988155      -2.12788279
H        0.00000000       0.00000000       0.00000000      -0.09911821      -0.18896943       0.38964615
H        0.00000000       0.00000000       0.00000000      -0.92060197       1.20930839       1.74000635
H        0.00000000       0.00000000       0.00000000       0.11216778       0.93027758       0.51964793
7
Lattice="529.1772105638412 0.0 0.0 0.0 529.1772105638412 0.0 0.0 0.0 529.1772105638412" Properties=species:S:1:pos:R:3:forces_component_raw:R:3 ipi_comment="Step:         560  Bead:       0 forces_component_raw{ase}  cell{ase}" pbc="T T T"
O        0.00000000       0.00000000       0.00000000      -0.86698373       0.51747494      -0.72172064
H        0.00000000       0.00000000       0.00000000       0.70305911      -0.53934450       0.68888955
H        0.00000000       0.00000000       0.00000000       0.33279462       0.38099635       0.32990288
O        0.00000000       0.00000000       0.00000000       1.57089355       0.50745904      -1.08896540
H        0.00000000       0.00000000       0.00000000      -0.18934765      -0.07214444      -0.39657486
H        0.00000000       0.00000000       0.00000000      -1.75982035       0.10162783       1.79721155
H        0.00000000       0.00000000       0.00000000       0.20940444      -0.89606923      -0.60874307
7
Lattice="529.1772105638412 0.0 0.0 0.0 529.1772105638412 0.0 0.0 0.0 529.1772105638412" Properties=species:S:1:pos:R:3:forces_component_raw:R:3 ipi_comment="Step:         580  Bead:       0 forces_component_raw{ase}  cell{ase}" pbc="T T T"
O        0.00000000       0.00000000       0.00000000      -2.17339950       1.25081535      -1.80346755
H        0.00000000       0.00000000       0.00000000       0.80367556      -1.31719374       0.89224639
H        0.00000000       0.00000000       0.00000000       1.20930761       0.70365305       1.58190281
O        0.00000000       0.00000000       0.00000000       1.25718682      -2.16544653      -1.90653535
H        0.00000000       0.00000000       0.00000000       0.06161064       0.35773292       0.31241074
H        0.00000000       0.00000000       0.00000000      -0.33197087       1.18452379       0.48844893
H        0.00000000       0.00000000       0.00000000      -0.82641026      -0.01408484       0.43499404
7
Lattice="529.1772105638412 0.0 0.0 0.0 529.1772105638412 0.0 0.0 0.0 529.1772105638412" Properties=species:S:1:pos:R:3:forces_component_raw:R:3 ipi_comment="Step:         600  Bead:       0 forces_component_raw{ase}  cell{ase}" pbc="T T T"
O        0.00000000       0.00000000       0.00000000      -1.87646973       0.68893763      -2.72942023
H        0.00000000       0.00000000       0.00000000       0.46339193      -0.78627572       0.84218058
H        0.00000000       0.00000000       0.00000000       1.24066521       0.54747390       2.10360136
O        0.00000000       0.00000000       0.00000000       0.85665689       1.36532240       0.33263906