7
Lattice="529.1772105638412 0.0 0.0 0.0 529.1772105638412 0.0 0.0 0.0 529.1772105638412" Properties=species:S:1:pos:R:3:forces_component_raw:R:3 ipi_comment="Step:           0  Bead:       0 forces_component_raw{ase}  cell{ase}" pbc="T T T"
O        0.00000000       0.00000000       0.00000000      -1.24905231      -1.24835201      -1.02638711
H        0.00000000       0.00000000       0.00000000       2.15422700       1.71369032       1.49943982
H        0.00000000       0.00000000       0.00000000      -0.89359462       0.57333618       0.35791407
O        0.00000000       0.00000000       0.00000000      -0.01701524      -0.25086015       0.01353294
H        0.00000000       0.00000000       0.00000000      -0.07826444      -0.61311860      -0.54346057
H        0.00000000       0.00000000       0.00000000       0.49934407       0.05051799      -0.17813388
H        0.00000000       0.00000000       0.00000000      -0.41564445      -0.22521373      -0.12290526
7
Lattice="529.1772105638412 0.0 0.0 0.0 529.1772105638412 0.0 0.0 0.0 529.1772105638412" Properties=species:S:1:pos:R:3:forces_component_raw:R:3 ipi_comment="Step:          20  Bead:       0 forces_component_raw{ase}  cell{ase}" pbc="T T T"
O        0.00000000       0.00000000       0.00000000       0.04637374      -0.82787100      -1.26802935
H        0.00000000       0.00000000       0.00000000       1.06589511       0.46550008       0.55440596
H        0.00000000       0.00000000       0.00000000      -1.13532537       0.11486492       0.37847096
O        0.00000000       0.00000000       0.00000000      -0.71042347       0.23256202       0.40066458
H        0.00000000       0.00000000       0.00000000       0.39768208      -0.04154102       0.15252661
H        0.00000000       0.00000000       0.00000000       0.40171245       0.11767186      -0.17092097
H        0.00000000       0.00000000       0.00000000      -0.06591452      -0.06118686      -0.04711779
7
Lattice="529.1772105638412 0.0 0.0 0.0 529.1772105638412 0.0 0.0 0.0 529.1772105638412" Properties=species:S:1:pos:R:3:forces_component_raw:R:3 ipi_comment="Step:          40  Bead:       0 forces_component_raw{ase}  cell{ase}" pbc="T T T"
O        0.00000000       0.00000000       0.00000000       0.94145572      -0.07426825      -0.02363481
H        0.00000000       0.00000000       0.00000000      -0.43611254      -0.30344009      -0.45527711
H        0.00000000       0.00000000       0.00000000      -0.42042133       0.05048191       0.24019590
O        0.00000000       0.00000000       0.00000000       0.19755741       0.04243052       0.09541054
H        0.00000000       0.00000000       0.00000000      -0.46505476       0.37323774       0.42069967
H        0.00000000       0.00000000       0.00000000       0.13597924      -0.22375266      -0.29034613
H        0.00000000       0.00000000       0.00000000       0.04659625       0.13531082       0.01295195
7
Lattice="529.1772105638412 0.0 0.0 0.0 529.1772105638412 0.0 0.0 0.0 529.1772105638412" Properties=species:S:1:pos:R:3:forces_component_raw:R:3 ipi_comment="Step:          60  Bead:       0 forces_component_raw{ase}  cell{ase}" pbc="T T T"
O        0.00000000       0.00000000       0.00000000       1.19555851      -0.74489987       0.18283486
H        0.00000000       0.00000000       0.00000000      -1.11614046      -0.78564946      -0.97705148
H        0.00000000       0.00000000       0.00000000      -0.07779201       0.31678549       0.23146435
O        0.00000000       0.00000000       0.00000000      -0.14557929       0.49647437       0.48504536
H        0.00000000       0.00000000       0.00000000       0.15362533       0.46935890      -0.15709385
H        0.00000000       0.00000000       0.00000000      -0.11859144       0.06405066       0.12581112
H        0.00000000       0.00000000       0.00000000       0.10891936       0.18387991       0.10898964
7
Lattice="529.1772105638412 0.0 0.0 0.0 529.1772105638412 0.0 0.0 0.0 529.1772105638412" Properties=species:S:1:pos:R:3:forces_component_raw:R:3 ipi_comment="Step:          80  Bead:       0 forces_component_raw{ase}  cell{ase}" pbc="T T T"
O        0.00000000       0.00000000       0.00000000       1.48786577       1.60898209       2.21780584
H        0.00000000       0.00000000       0.00000000      -1.75521732      -0.44230911      -0.92337273
H        0.00000000       0.00000000       0.00000000       0.42885129      -0.02600423      -0.54201810
O        0.00000000       0.00000000       0.00000000       0.13066688      -0.20709433      -0.41306260
H        0.00000000       0.00000000       0.00000000      -0.20520889      -1.25249551      -0.77706465
H        0.00000000       0.00000000       0.00000000      -0.30575400       0.10595416       0.33538857
H        0.00000000       0.00000000       0.00000000       0.21879627       0.21296694       0.10232367
7
Lattice="529.1772105638412 0.0 0.0 0.0 529.1772105638412 0.0 0.0 0.0 529.1772105638412" Properties=species:S:1:pos:R:3:forces_component_raw:R:3 ipi_comment="Step:         100  Bead:       0 forces_component_raw{ase}  cell{ase}" pbc="T T T"
O        0.00000000       0.00000000       0.00000000       0.56999927      -0.21372395       1.52456552
H        0.00000000       0.00000000       0.00000000      -1.79433062      -0.51958720      -0.77901277
H        0.00000000       0.00000000       0.00000000       1.02751370       0.62600869      -0.83731309
O        0.00000000       0.00000000       0.00000000      -0.17240317      -0.81847081      -0.55724252
H        0.00000000       0.00000000       0.00000000       0.47414572       0.76805737       0.52110076
H        0.00000000       0.00000000       0.00000000      -0.30991916       0.22259200       0.28179805
H        0.00000000       0.00000000       0.00000000       0.20499425      -0.06487610      -0.15389596
7
Lattice="529.1772105638412 0.0 0.0 0.0 529.1772105638412 0.0 0.0 0.0 529.1772105638412" Properties=species:S:1:pos:R:3:forces_component_raw:R:3 ipi_comment="Step:         120  Bead:       0 forces_component_raw{ase}  cell{ase}" pbc="T T T"
O        0.00000000       0.00000000       0.00000000       0.53077748       1.17221258       2.98402585
H        0.00000000       0.00000000       0.00000000      -1.22418240      -0.36595369      -0.90048301
H        0.00000000       0.00000000       0.00000000       0.82007152       0.08561491      -1.51874874
O        0.00000000       0.00000000       0.00000000       0.69130835      -0.26261215      -0.72826479
H        0.00000000       0.00000000       0.00000000      -0.51659785      -0.47852376      -0.10409107
H        0.00000000       0.00000000       0.00000000      -0.32476115      -0.25090651       0.23536768
H        0.00000000       0.00000000       0.00000000       0.02338405       0.10016861       0.03219407
7
Lattice="529.1772105638412 0.0 0.0 0.0 529.1772105638412 0.0 0.0 0.0 529.1772105638412" Properties=species:S:1:pos:R:3:forces_component_raw:R:3 ipi_comment="Step:         140  Bead:       0 forces_component_raw{ase}  cell{ase}" pbc="T T T"
O        0.00000000       0.00000000       0.00000000      -1.13335125      -0.40544521       0.99508631
H        0.00000000       0.00000000       0.00000000      -0.78018675      -0.49712609       0.07992298
H        0.00000000       0.00000000       0.00000000       1.52026653       0.79516438      -0.79262545
O        0.00000000       0.00000000       0.00000000       0.09419765      -0.30690298      -0.68018096
H        0.00000000       0.00000000       0.00000000       0.37279248       0.32728091      -0.21471527
H        0.00000000       0.00000000       0.00000000       0.00540285       0.03465676       0.30511346
H        0.00000000       0.00000000       0.00000000      -0.07912151       0.05237224       0.30739893
7
Lattice="529.1772105638412 0.0 0.0 0.0 529.1772105638412 0.0 0.0 0.0 529.1772105638412" Properties=species:S:1:pos:R:3:forces_component_raw:R:3 ipi_comment="Step:         160  Bead:       0 forces_component_raw{ase}  cell{ase}" pbc="T T T"
O        0.00000000       0.00000000       0.00000000      -0.80347730       0.14844958       1.05520135
H        0.00000000       0.00000000       0.00000000       0.51023607       0.18200451      -0.22587383
H        0.00000000       0.00000000       0.00000000       0.35007872      -0.41619273      -0.97043804
O        0.00000000       0.00000000       0.00000000      -0.13138777       0.28503170       0.08612089
H        0.00000000       0.00000000       0.00000000      -0.13840051       0.02541735       0.51990957
H        0.00000000       0.00000000       0.00000000       0.00557838      -0.36239589      -0.36104920
H        0.00000000       0.00000000       0.00000000       0.20737241       0.13768549      -0.10387073
7
Lattice="529.1772105638412 0.0 0.0 0.0 529.1772105638412 0.0 0.0 0.0 529.1772105638412" Properties=species:S:1:pos:R:3:forces_component_raw:R:3 ipi_comment="Step:         180  Bead:       0 forces_component_raw{ase}  cell{ase}" pbc="T T T"
O        0.00000000       0.00000000       0.00000000      -0.31825165      -2.15288082      -1.55357445
H        0.00000000       0.00000000       0.00000000       0.94763203       1.31228020       0.60413461
H        0.00000000       0.00000000       0.00000000      -0.23604156       0.18324719       0.40444240
O        0.00000000       0.00000000       0.00000000      -0.83348459       0.53707687       0.91970397
H        0.00000000       0.00000000       0.00000000       0.00914078      -0.05432139      -0.33306365
H        0.00000000       0.00000000       0.00000000       0.36883632       0.37763377      -0.22937057
H        0.00000000       0.00000000       0.00000000       0.06216866      -0.20303583       0.18772769
7
Lattice="529.1772105638412 0.0 0.0 0.0 529.1772105638412 0.0 0.0 0.0 529.1772105638412" Properties=species:S:1:pos:R:3:forces_component_raw:R:3 ipi_comment="Step:         200  Bead:       0 forces_component_raw{ase}  cell{ase}" pbc="T T T"
O        0.00000000       0.00000000       0.00000000       0.32170762      -1.42799942      -1.08187145
H        0.00000000       0.00000000       0.00000000       1.42568274       1.44518324       0.03822817
H        0.00000000       0.00000000       0.00000000      -1.53747144      -0.31696416       0.70773081
O        0.00000000       0.00000000       0.00000000      -0.30933104       0.99351189       1.22214167
H        0.00000000       0.00000000       0.00000000       0.02183273      -0.58334167      -0.27425812
H        0.00000000       0.00000000       0.00000000       0.08132694       0.01250582      -0.44430639
H        0.00000000       0.00000000       0.00000000      -0.00374754      -0.12289570      -0.16766469
7
Lattice="529.1772105638412 0.0 0.0 0.0 529.1772105638412 0.0 0.0 0.0 529.1772105638412" Properties=species:S:1:pos:R:3:forces_component_raw:R:3 ipi_comment="Step:         220  Bead:       0 forces_component_raw{ase}  cell{ase}" pbc="T T T"
O        0.00000000       0.00000000       0.00000000       1.68858854      -1.42177033      -1.38452544
H        0.00000000       0.00000000       0.00000000       0.43475679       1.16742784       0.12114586
H        0.00000000       0.00000000       0.00000000      -2.46322371       0.31293979       1.29795283
O        0.00000000       0.00000000       0.00000000       0.20519762      -0.55648031      -0.42733974
H        0.00000000       0.00000000       0.00000000       0.18346140       0.49748010       0.58684494
H        0.00000000       0.00000000       0.00000000       0.23755397       0.25995141      -0.36366550
H        0.00000000       0.00000000       0.00000000      -0.28633461      -0.25954850       0.16958705
7
Lattice="529.1772105638412 0.0 0.0 0.0 529.1772105638412 0.0 0.0 0.0 529.1772105638412" Properties=species:S:1:pos:R:3:forces_component_raw:R:3 ipi_comment="Step:         240  Bead:       0 forces_component_raw{ase}  cell{ase}" pbc="T T T"
O        0.00000000       0.00000000       0.00000000       1.70498711       0.84403636       0.29494365
H        0.00000000       0.00000000       0.00000000       0.32579343       0.25314586      -0.13294838
H        0.00000000       0.00000000       0.00000000      -2.15122101      -0.17906727       0.67420543
O        0.00000000       0.00000000       0.00000000       0.52131435       0.56263951      -0.14638020
H        0.00000000       0.00000000       0.00000000      -0.11530111      -0.74221413      -0.36934032
H        0.00000000       0.00000000       0.00000000       0.05465733      -0.16110484      -0.27030742
H        0.00000000       0.00000000       0.00000000      -0.34023012      -0.57743548      -0.05017277
7
Lattice="529.1772105638412 0.0 0.0 0.0 529.1772105638412 0.0 0.0 0.0 529.1772105638412" Properties=species:S:1:pos:R:3:forces_component_raw:R:3 ipi_comment="Step:         260  Bead:       0 forces_component_raw{ase}  cell{ase}" pbc="T T T"
O        0.00000000       0.00000000       0.00000000       0.72264705      -0.05830891      -0.78437783
H        0.00000000       0.00000000       0.00000000      -0.12830742      -0.26426947       0.37962835
H        0.00000000       0.00000000       0.00000000      -0.65974980       0.17852879       0.28838828
O        0.00000000       0.00000000       0.00000000       0.19823374      -0.06451988       0.09233738
H        0.00000000       0.00000000       0.00000000       0.04198139       0.64775455       0.10135467
H        0.00000000       0.00000000       0.00000000       0.05664103       0.23808152      -0.11279773
H        0.00000000       0.00000000       0.00000000      -0.23144598      -0.67726659       0.03546688
7
Lattice="529.1772105638412 0.0 0.0 0.0 529.1772105638412 0.0 0.0 0.0 529.1772105638412" Properties=species:S:1:pos:R:3:forces_component_raw:R:3 ipi_comment="Step:         280  Bead:       0 forces_component_raw{ase}  cell{ase}" pbc="T T T"
O        0.00000000       0.00000000       0.00000000      -0.44918324       1.20010073      -1.30194081
H        0.00000000       0.00000000       0.00000000      -0.19578757      -0.78120648       1.00945432
H        0.00000000       0.00000000       0.00000000       0.73821777      -0.18501208      -0.07527184
O        0.00000000       0.00000000       0.00000000      -0.00673552       0.41388884       0.10104778
H        0.00000000       0.00000000       0.00000000       0.01108935      -0.42234657       0.11073660
H        0.00000000       0.00000000       0.00000000      -0.05959823      -0.02762675       0.17602028
H        0.00000000       0.00000000       0.00000000      -0.03800256      -0.19779769      -0.02004632
7
Lattice="529.1772105638412 0.0 0.0 0.0 529.1772105638412 0.0 0.0 0.0 529.1772105638412" Properties=species:S:1:pos:R:3:forces_component_raw:R:3 ipi_comment="Step:         300  Bead:       0 forces_component_raw{ase}  cell{ase}" pbc="T T T"
O        0.00000000       0.00000000       0.00000000      -1.10518996       0.77115993       0.27161600
H        0.00000000       0.00000000       0.00000000      -0.45129853      -1.29756667       0.27461716
H        0.00000000       0.00000000       0.00000000       1.60414990       0.02468004      -0.75912409
O        0.00000000       0.00000000       0.00000000      -0.06672872       0.13245799       0.02687999
H        0.00000000       0.00000000       0.00000000       0.06007541       0.23109503      -0.15817680
H        0.00000000       0.00000000       0.00000000      -0.04509440      -0.06220718       0.29247744
H        0.00000000       0.00000000       0.00000000       0.00408631       0.20038086       0.05171028
7
Lattice="529.1772105638412 0.0 0.0 0.0 529.1772105638412 0.0 0.0 0.0 529.1772105638412" Properties=species:S:1:pos:R:3:forces_component_raw:R:3 ipi_comment="Step:         320  Bead:       0 forces_component_raw{ase}  cell{ase}" pbc="T T T"
O        0.00000000       0.00000000       0.00000000      -1.35499259       0.61220514       0.93065696
H        0.00000000       0.00000000       0.00000000      -0.45184427      -1.06134633       0.03818814
H        0.00000000       0.00000000       0.00000000       1.96108893       0.18319743      -1.29980054
O        0.00000000       0.00000000       0.00000000       0.01600760       0.07660571      -0.21302695
H        0.00000000       0.00000000       0.00000000      -0.14143682      -0.20518864       0.29907123
H        0.00000000       0.00000000       0.00000000       0.00361164      -0.29868101       0.24827758
H        0.00000000       0.00000000       0.00000000      -0.03243447       0.69320769      -0.00336642
7
Lattice="529.1772105638412 0.0 0.0 0.0 529.1772105638412 0.0 0.0 0.0 529.1772105638412" Properties=species:S:1:pos:R:3:forces_component_raw:R:3 ipi_comment="Step:         340  Bead:       0 forces_component_raw{ase}  cell{ase}" pbc="T T T"
O        0.00000000       0.00000000       0.00000000      -1.94238276       0.21549108       1.83918405
H        0.00000000       0.00000000       0.00000000      -0.37369966      -0.82303815      -0.09237213
H        0.00000000       0.00000000       0.00000000       2.06921238       0.56356826      -1.47929383
O        0.00000000       0.00000000       0.00000000       0.17272916      -1.31681528      -0.17195760
H        0.00000000       0.00000000       0.00000000       0.18597266       0.39213015      -0.16558930
H        0.00000000       0.00000000       0.00000000      -0.06083451       0.04010073       0.33697666
H        0.00000000       0.00000000       0.00000000      -0.05099727       0.92856322      -0.26694785
7
Lattice="529.1772105638412 0.0 0.0 0.0 529.1772105638412 0.0 0.0 0.0 529.1772105638412" Properties=species:S:1:pos:R:3:forces_component_raw:R:3 ipi_comment="Step:         360  Bead:       0 forces_component_raw{ase}  cell{ase}" pbc="T T T"
O        0.00000000       0.00000000       0.00000000      -1.21993140       1.01672290       1.87677703
H        0.00000000       0.00000000       0.00000000      -0.38152841      -0.56371642       0.07896335
H        0.00000000       0.00000000       0.00000000       1.61793947       0.21188589      -1.58209920
O        0.00000000       0.00000000       0.00000000       0.34163193      -1.19256516      -0.90652740
H        0.00000000       0.00000000       0.00000000      -0.32101723      -0.15786182       0.37707088
H        0.00000000       0.00000000       0.00000000       0.05182322      -0.15807943       0.52616952
H        0.00000000       0.00000000       0.00000000      -0.08891757       0.84361404      -0.37035417
7
Lattice="529.1772105638412 0.0 0.0 0.0 529.1772105638412 0.0 0.0 0.0 529.1772105638412" Properties=species:S:1:pos:R:3:forces_component_raw:R:3 ipi_comment="Step:         380  Bead:       0 forces_component_raw{ase}  cell{ase}" pbc="T T T"
O        0.00000000       0.00000000       0.00000000      -0.75199919       0.44611367       1.15239655
H        0.00000000       0.00000000       0.00000000      -0.18172971      -0.28764432      -0.02495330
H        0.00000000       0.00000000       0.00000000       0.60863281       0.26057669      -0.56193315
O        0.00000000       0.00000000       0.00000000      -0.30293099      -0.86359982      -0.42947747
H        0.00000000       0.00000000       0.00000000       0.36139972      -0.15533138      -0.48705940
H        0.00000000       0.00000000       0.00000000       0.20524690       0.08329358       0.64552303
H        0.00000000       0.00000000       0.00000000       0.06138046       0.51659158      -0.29449626
7
Lattice="529.1772105638412 0.0 0.0 0.0 529.1772105638412 0.0 0.0 0.0 529.1772105638412" Properties=species:S:1:pos:R:3:forces_component_raw:R:3 ipi_comment="Step:         400  Bead:       0 forces_component_raw{ase}  cell{ase}" pbc="T T T"
O        0.00000000       0.00000000       0.00000000       0.61648965      -0.06248837      -0.87579945
H        0.00000000       0.00000000       0.00000000      -0.01765810       0.01083419       0.01984462
H        0.00000000       0.00000000       0.00000000      -0.56427156      -0.11137302       0.58224352
O        0.00000000       0.00000000       0.00000000      -0.80319907       0.21900547      -0.28239865
H        0.00000000       0.00000000       0.00000000       0.24455001      -0.11312221       0.12860710
H        0.00000000       0.00000000       0.00000000       0.46503565      -0.05007990       0.38710434
H        0.00000000       0.00000000       0.00000000       0.05905342       0.10722385       0.04039852
7
Lattice="529.1772105638412 0.0 0.0 0.0 529.1772105638412 0.0 0.0 0.0 529.1772105638412" Properties=species:S:1:pos:R:3:forces_component_raw:R:3 ipi_comment="Step:         420  Bead:       0 forces_component_raw{ase}  cell{ase}" pbc="T T T"
O        0.00000000       0.00000000       0.00000000       2.09040455      -0.29739440      -2.64393996
H        0.00000000       0.00000000       0.00000000       0.34787664       0.43313580      -0.08054035
H        0.00000000       0.00000000       0.00000000      -2.04116359      -0.49699396       2.28596997
O        0.00000000       0.00000000       0.00000000      -0.20484926       1.24076652       0.92817856
H        0.00000000       0.00000000       0.00000000      -0.32724786      -0.10280959      -0.47702373
H        0.00000000       0.00000000       0.00000000       0.15295762      -0.17801997       0.07062215
H        0.00000000       0.00000000       0.00000000      -0.01797811      -0.59868440      -0.08326664
7
Lattice="529.1772105638412 0.0 0.0 0.0 529.1772105638412 0.0 0.0 0.0 529.1772105638412" Properties=species:S:1:pos:R:3:forces_component_raw:R:3 ipi_comment="Step:         440  Bead:       0 forces_component_raw{ase}  cell{ase}" pbc="T T T"
O        0.00000000       0.00000000       0.00000000       2.02789166      -0.94218696      -3.57039804
H        0.00000000       0.00000000       0.00000000       0.55801619       1.04677420       0.16632838
H        0.00000000       0.00000000       0.00000000      -2.45785045      -0.64456195       2.95950983
O        0.00000000       0.00000000       0.00000000      -0.65178347       1.25468254       0.43416703
H        0.00000000       0.00000000       0.00000000       0.37368141       0.00407415       0.12321126
H        0.00000000       0.00000000       0.00000000      -0.19374471       0.06675045      -0.66513633
H        0.00000000       0.00000000       0.00000000       0.34378937      -0.78553243       0.55231786
7
Lattice="529.1772105638412 0.0 0.0 0.0 529.1772105638412 0.0 0.0 0.0 529.1772105638412" Properties=species:S:1:pos:R:3:forces_component_raw:R:3 ipi_comment="Step:         460  Bead:       0 forces_component_raw{ase}  cell{ase}" pbc="T T T"
O        0.00000000       0.00000000       0.00000000       0.81429652      -0.67623656      -2.05242389
H        0.00000000       0.00000000       0.00000000       0.99407380       1.44530494       0.01052601
H        0.00000000       0.00000000       0.00000000      -1.79459753      -0.86638205       2.11892460
O        0.00000000       0.00000000       0.00000000       0.63880727       1.09182939       0.86005183
H        0.00000000       0.00000000       0.00000000      -0.15881827       0.13658401      -0.36895985
H        0.00000000       0.00000000       0.00000000      -0.68245286      -0.16229662      -0.59808426
H        0.00000000       0.00000000       0.00000000       0.18869107      -0.96880311       0.02996556
7
Lattice="529.1772105638412 0.0 0.0 0.0 529.1772105638412 0.0 0.0 0.0 529.1772105638412" Properties=species:S:1:pos:R:3:forces_component_raw:R:3 ipi_comment="Step:         480  Bead:       0 forces_component_raw{ase}  cell{ase}" pbc="T T T"
O        0.00000000       0.00000000       0.00000000      -0.34361862      -0.69234323      -1.08430306
H        0.00000000       0.00000000       0.00000000       0.67043418       1.18138979       0.44557559
H        0.00000000       0.00000000       0.00000000      -0.44609094      -0.08061744       0.85866318
O        0.00000000       0.00000000       0.00000000       0.53238046       0.25221519      -0.19393278
H        0.00000000       0.00000000       0.00000000      -0.04454919      -0.14159053       0.39931969
H        0.00000000       0.00000000       0.00000000      -0.81973601       0.06974787      -0.88525251
H        0.00000000       0.00000000       0.00000000       0.45118012      -0.58880164       0.45992989
7
Lattice="529.1772105638412 0.0 0.0 0.0 529.1772105638412 0.0 0.0 0.0 529.1772105638412" Properties=species:S:1:pos:R:3:forces_component_raw:R:3 ipi_comment="Step:         500  Bead:       0 forces_component_raw{ase}  cell{ase}" pbc="T T T"
O        0.00000000       0.00000000       0.00000000      -1.44195947      -0.03663304       1.93137332
H        0.00000000       0.00000000       0.00000000       0.58891518       0.41788743      -0.16895103
H        0.00000000       0.00000000       0.00000000       0.37331054       0.22469311      -0.96859451
O        0.00000000       0.00000000       0.00000000       0.53914028       0.42927737       0.70902500
H        0.00000000       0.00000000       0.00000000       0.35602777      -0.20987695      -0.55067493
H        0.00000000       0.00000000       0.00000000      -0.56859677      -0.33219673      -0.76292605
H        0.00000000       0.00000000       0.00000000       0.15316248      -0.49315120      -0.18925179
7
Lattice="529.1772105638412 0.0 0.0 0.0 529.1772105638412 0.0 0.0 0.0 529.1772105638412" Properties=species:S:1:pos:R:3:forces_component_raw:R:3 ipi_comment="Step:         520  Bead:       0 forces_component_raw{ase}  cell{ase}" pbc="T T T"
O        0.00000000       0.00000000       0.00000000       0.12558989      -0.73139211       1.42931939
H        0.00000000       0.00000000       0.00000000      -0.54856400      -0.09119888       0.19666718
H        0.00000000       0.00000000       0.00000000       0.65505965       0.68356152      -1.93585855
O        0.00000000       0.00000000       0.00000000       0.63839167      -0.49802882      -0.22933216
H        0.00000000       0.00000000       0.00000000      -0.42590746       0.36148111       0.53925285
H        0.00000000       0.00000000       0.00000000      -0.50176776       0.19540419      -0.16316624
H        0.00000000       0.00000000       0.00000000       0.05719802       0.08017298       0.16311753
7
Lattice="529.1772105638412 0.0 0.0 0.0 529.1772105638412 0.0 0.0 0.0 529.1772105638412" Properties=species:S:1:pos:R:3:forces_component_raw:R:3 ipi_comment="Step:         540  Bead:       0 forces_component_raw{ase}  cell{ase}" pbc="T T T"
O        0.00000000       0.00000000       0.00000000       1.13203246      -1.31840807       1.67550324
H        0.00000000       0.00000000       0.00000000      -1.27426399      -0.52870033      -0.23480200
H        0.00000000       0.00000000       0.00000000       0.31691753       1.02245347      -2.07477362
O        0.00000000       0.00000000       0.00000000      -0.63379415       0.40110772       0.37616004
H        0.00000000       0.00000000       0.00000000       0.27831337       0.40020901       0.12557498
H        0.00000000       0.00000000       0.00000000       0.60604635      -0.18371975       0.19662129
H        0.00000000       0.00000000       0.00000000      -0.42525155       0.20705794      -0.06428392
7
Lattice="529.1772105638412 0.0 0.0 0.0 529.1772105638412 0.0 0.0 0.0 529.1772105638412" Properties=species:S:1:pos:R:3:forces_component_raw:R:3 ipi_comment="Step:         560  Bead:       0 forces_component_raw{ase}  cell{ase}" pbc="T T T"
O        0.00000000       0.00000000       0.00000000       1.34969446      -0.48114642       1.69588675
H        0.00000000       0.00000000       0.00000000      -1.66730940      -0.99247401       0.05951758
H        0.00000000       0.00000000       0.00000000       0.74425485       1.25035155      -2.04459175
O        0.00000000       0.00000000       0.00000000      -0.73185386      -1.33671628      -0.65342969
H        0.00000000       0.00000000       0.00000000      -0.29838893      -0.09374556      -0.02629675
H        0.00000000       0.00000000       0.00000000       0.72279612       0.81254236       0.62338584
H        0.00000000       0.00000000       0.00000000      -0.11919324       0.84118836       0.34552802
7
Lattice="529.1772105638412 0.0 0.0 0.0 529.1772105638412 0.0 0.0 0.0 529.1772105638412" Properties=species:S:1:pos:R:3:forces_component_raw:R:3 ipi_comment="Step:         580  Bead:       0 forces_component_raw{ase}  cell{ase}" pbc="T T T"
O        0.00000000       0.00000000       0.00000000       0.48252101       0.53909239       2.05114548
H        0.00000000       0.00000000       0.00000000      -1.11131365      -1.52586931      -0.63392714
H        0.00000000       0.00000000       0.00000000       0.61763348       0.80463445      -1.56062558
O        0.00000000       0.00000000       0.00000000      -0.49236973      -0.19083834      -0.05280438
H        0.00000000       0.00000000       0.00000000       0.02855387       0.05649753       0.01635641
H        0.00000000       0.00000000       0.00000000       1.47089210       0.07795766       0.64455293
H        0.00000000       0.00000000       0.00000000      -0.99591709       0.23852562      -0.46469773
7
Lattice="529.1772105638412 0.0 0.0 0.0 529.1772105638412 0.0 0.0 0.0 529.1772105638412" Properties=species:S:1:pos:R:3:forces_component_raw:R:3 ipi_comment="Step:         600  Bead:       0 forces_component_raw{ase}  cell{ase}" pbc="T T T"
O        0.00000000       0.00000000       0.00000000      -0.07971871       1.56069840       1.77839079
H        0.00000000       0.00000000       0.00000000      -0.58848139      -1.63900572      -0.59601984
H        0.00000000       0.00000000       0.00000000       0.43178577       0.36923024      -0.72308223
O        0.00000000       0.00000000       0.00000000      -0.20199416      -2.38674772      -0.94799596