7
Lattice="529.1772105638412 0.0 0.0 0.0 529.1772105638412 0.0 0.0 0.0 529.1772105638412" Properties=species:S:1:pos:R:3:forces_component_raw:R:3 ipi_comment="Step:           0  Bead:       0 forces_component_raw{ase}  cell{ase}" pbc="T T T"
O        0.00000000       0.00000000       0.00000000      -1.24943446      -1.31947096      -1.07914976
H        0.00000000       0.00000000       0.00000000       2.02123722       1.69127780       1.49044754
H        0.00000000       0.00000000       0.00000000      -0.71777137       0.55156481       0.36200721
O        0.00000000       0.00000000       0.00000000      -0.00559509      -0.28318524       0.08077790
H        0.00000000       0.00000000       0.00000000      -0.12302852      -0.51466850      -0.55517361
H        0.00000000       0.00000000       0.00000000       0.45323207       0.07123683      -0.17936987
H        0.00000000       0.00000000       0.00000000      -0.37863986      -0.19675475      -0.11953943
7
Lattice="529.1772105638412 0.0 0.0 0.0 529.1772105638412 0.0 0.0 0.0 529.1772105638412" Properties=species:S:1:pos:R:3:forces_component_raw:R:3 ipi_comment="Step:          20  Bead:       0 forces_component_raw{ase}  cell{ase}" pbc="T T T"
O        0.00000000       0.00000000       0.00000000       0.65668824      -1.03687243      -1.69703527
H        0.00000000       0.00000000       0.00000000       0.98909989       0.42952607       0.53513544
H        0.00000000       0.00000000       0.00000000      -1.79812824       0.42936299       0.81679166
O        0.00000000       0.00000000       0.00000000      -0.64526376       0.30272976       0.71589411
H        0.00000000       0.00000000       0.00000000       0.61291456       0.08284880       0.26227258
H        0.00000000       0.00000000       0.00000000       0.72852064       0.23840003      -0.38038951
H        0.00000000       0.00000000       0.00000000      -0.54383133      -0.44599523      -0.25266902
7
Lattice="529.1772105638412 0.0 0.0 0.0 529.1772105638412 0.0 0.0 0.0 529.1772105638412" Properties=species:S:1:pos:R:3:forces_component_raw:R:3 ipi_comment="Step:          40  Bead:       0 forces_component_raw{ase}  cell{ase}" pbc="T T T"
O        0.00000000       0.00000000       0.00000000       1.04502469      -0.04925222      -0.15197314
H        0.00000000       0.00000000       0.00000000      -0.11941787      -0.09052332      -0.23978645
H        0.00000000       0.00000000       0.00000000      -0.60630392      -0.12696882       0.17009905
O        0.00000000       0.00000000       0.00000000      -0.04160903       0.38926528       0.50138758
H        0.00000000       0.00000000       0.00000000      -0.63473611       0.14872092       0.21125332
H        0.00000000       0.00000000       0.00000000       0.16732486      -0.31460515      -0.38695470
H        0.00000000       0.00000000       0.00000000       0.18971738       0.04336332      -0.10402565
7
Lattice="529.1772105638412 0.0 0.0 0.0 529.1772105638412 0.0 0.0 0.0 529.1772105638412" Properties=species:S:1:pos:R:3:forces_component_raw:R:3 ipi_comment="Step:          60  Bead:       0 forces_component_raw{ase}  cell{ase}" pbc="T T T"
O        0.00000000       0.00000000       0.00000000       0.05770548       0.75080484       1.65689970
H        0.00000000       0.00000000       0.00000000      -1.17086170      -0.81147899      -1.25809194
H        0.00000000       0.00000000       0.00000000       0.54063071       0.46077171       0.00104752
O        0.00000000       0.00000000       0.00000000      -1.31132819      -1.07859150       0.44160989
H        0.00000000       0.00000000       0.00000000       0.63216138      -0.43537247      -0.53374038
H        0.00000000       0.00000000       0.00000000       0.71073953       0.12130846      -0.46625067
H        0.00000000       0.00000000       0.00000000       0.54095278       0.99255796       0.15852589
7
Lattice="529.1772105638412 0.0 0.0 0.0 529.1772105638412 0.0 0.0 0.0 529.1772105638412" Properties=species:S:1:pos:R:3:forces_component_raw:R:3 ipi_comment="Step:          80  Bead:       0 forces_component_raw{ase}  cell{ase}" pbc="T T T"
O        0.00000000       0.00000000       0.00000000       0.61374615      -0.08674516       1.94363055
H        0.00000000       0.00000000       0.00000000      -1.50233677      -0.64230567      -1.87233154
H        0.00000000       0.00000000       0.00000000       1.18467875       0.46073699      -0.59973094
O        0.00000000       0.00000000       0.00000000      -0.37240642      -1.01541360      -0.06709667
H        0.00000000       0.00000000       0.00000000      -0.45691315      -0.14219796       0.57561482
H        0.00000000       0.00000000       0.00000000      -0.08715579       0.08286628       0.08817402
H        0.00000000       0.00000000       0.00000000       0.62038723       1.34305910      -0.06826024
7
Lattice="529.1772105638412 0.0 0.0 0.0 529.1772105638412 0.0 0.0 0.0 529.1772105638412" Properties=species:S:1:pos:R:3:forces_component_raw:R:3 ipi_comment="Step:         100  Bead:       0 forces_component_raw{ase}  cell{ase}" pbc="T T T"
O        0.00000000       0.00000000       0.00000000       0.71791515      -0.28151609       2.57705045
H        0.00000000       0.00000000       0.00000000      -1.93961803      -0.12521627      -1.80829200
H        0.00000000       0.00000000       0.00000000       1.27836001       0.47781590      -0.55924026
O        0.00000000       0.00000000       0.00000000      -0.38394903      -1.71200175      -0.05535177
H        0.00000000       0.00000000       0.00000000      -0.13480319       0.53902863       0.16255090
H        0.00000000       0.00000000       0.00000000      -0.72796587      -0.42194924       0.58926050
H        0.00000000       0.00000000       0.00000000       1.19006096       1.52383882      -0.90597781
7
Lattice="529.1772105638412 0.0 0.0 0.0 529.1772105638412 0.0 0.0 0.0 529.1772105638412" Properties=species:S:1:pos:R:3:forces_component_raw:R:3 ipi_comment="Step:         120  Bead:       0 forces_component_raw{ase}  cell{ase}" pbc="T T T"
O        0.00000000       0.00000000       0.00000000       0.42307183       0.76172451       2.31758751
H        0.00000000       0.00000000       0.00000000      -1.97216667      -0.03588680      -1.47132168
H        0.00000000       0.00000000       0.00000000       1.40313525      -0.06384152      -0.44346987
O        0.00000000       0.00000000       0.00000000       1.69649137      -2.58970387      -1.23752626
H        0.00000000       0.00000000       0.00000000       0.15234359      -0.53954808      -0.10374533
H        0.00000000       0.00000000       0.00000000      -1.25781524       0.62564189       0.70037601
H        0.00000000       0.00000000       0.00000000      -0.44506013       1.84161386       0.23809962
7
Lattice="529.1772105638412 0.0 0.0 0.0 529.1772105638412 0.0 0.0 0.0 529.1772105638412" Properties=species:S:1:pos:R:3:forces_component_raw:R:3 ipi_comment="Step:         140  Bead:       0 forces_component_raw{ase}  cell{ase}" pbc="T T T"
O        0.00000000       0.00000000       0.00000000      -0.67647825      -0.23552581       0.99507993
H        0.00000000       0.00000000       0.00000000      -0.86121255       0.01646086      -0.77680725
H        0.00000000       0.00000000       0.00000000       1.60537930      -0.36333641      -0.47058666
O        0.00000000       0.00000000       0.00000000      -0.44934108       1.17871969       0.41199730
H        0.00000000       0.00000000       0.00000000       0.13485549       0.06055568      -0.01375318
H        0.00000000       0.00000000       0.00000000      -0.40680582      -1.16444676       0.11533816
H        0.00000000       0.00000000       0.00000000       0.65360292       0.50757275      -0.26126830
7
Lattice="529.1772105638412 0.0 0.0 0.0 529.1772105638412 0.0 0.0 0.0 529.1772105638412" Properties=species:S:1:pos:R:3:forces_component_raw:R:3 ipi_comment="Step:         160  Bead:       0 forces_component_raw{ase}  cell{ase}" pbc="T T T"
O        0.00000000       0.00000000       0.00000000      -0.97640375      -0.16063041      -0.04797360
H        0.00000000       0.00000000       0.00000000       0.15935020       0.11038312       0.30700895
H        0.00000000       0.00000000       0.00000000       0.99878919      -0.53207392      -0.29910938
O        0.00000000       0.00000000       0.00000000       0.66226176      -0.15188019      -0.79797170
H        0.00000000       0.00000000       0.00000000      -0.18341255       0.56775820       0.28933124
H        0.00000000       0.00000000       0.00000000      -0.05878982       0.57752429      -0.09403980
H        0.00000000       0.00000000       0.00000000      -0.60179504      -0.41108108       0.64275429
7
Lattice="529.1772105638412 0.0 0.0 0.0 529.1772105638412 0.0 0.0 0.0 529.1772105638412" Properties=species:S:1:pos:R:3:forces_component_raw:R:3 ipi_comment="Step:         180  Bead:       0 forces_component_raw{ase}  cell{ase}" pbc="T T T"
O        0.00000000       0.00000000       0.00000000      -0.64227030      -0.40760390      -2.04261456
H        0.00000000       0.00000000       0.00000000       0.33921121       0.10127770       1.64340792
H        0.00000000       0.00000000       0.00000000       0.21615594      -0.13862323       0.12152548
O        0.00000000       0.00000000       0.00000000      -2.46535906       1.07994474       1.19076644
H        0.00000000       0.00000000       0.00000000       0.28351536      -0.06870877      -0.14301208
H        0.00000000       0.00000000       0.00000000       1.65871256      -0.03891948      -0.76757295
H        0.00000000       0.00000000       0.00000000       0.61003428      -0.52736704      -0.00250025
7
Lattice="529.1772105638412 0.0 0.0 0.0 529.1772105638412 0.0 0.0 0.0 529.1772105638412" Properties=species:S:1:pos:R:3:forces_component_raw:R:3 ipi_comment="Step:         200  Bead:       0 forces_component_raw{ase}  cell{ase}" pbc="T T T"
O        0.00000000       0.00000000       0.00000000       0.06008878       0.44012766      -2.42112296
H        0.00000000       0.00000000       0.00000000      -0.10448456       0.04682605       2.51430937
H        0.00000000       0.00000000       0.00000000      -0.18650639       0.18974590       0.07816861
O        0.00000000       0.00000000       0.00000000      -0.68759919      -0.15158747       0.01833704
H        0.00000000       0.00000000       0.00000000      -0.16839982      -0.09824222       0.29742926
H        0.00000000       0.00000000       0.00000000       1.43728052       0.72295815      -1.34252659
H        0.00000000       0.00000000       0.00000000      -0.35037934      -1.14982808       0.85540526
7
Lattice="529.1772105638412 0.0 0.0 0.0 529.1772105638412 0.0 0.0 0.0 529.1772105638412" Properties=species:S:1:pos:R:3:forces_component_raw:R:3 ipi_comment="Step:         220  Bead:       0 forces_component_raw{ase}  cell{ase}" pbc="T T T"
O        0.00000000       0.00000000       0.00000000       1.25195271       0.38530661      -1.02211247
H        0.00000000       0.00000000       0.00000000      -0.69377699      -0.38091632       2.24397408
H        0.00000000       0.00000000       0.00000000      -0.71881869       0.85105546      -0.70089037
O        0.00000000       0.00000000       0.00000000      -1.26825865       0.98158605      -0.07711973
H        0.00000000       0.00000000       0.00000000      -0.28791148       0.11236565      -0.21904990
H        0.00000000       0.00000000       0.00000000       1.19875158      -0.24753617      -0.72434803
H        0.00000000       0.00000000       0.00000000       0.51806153      -1.70186128       0.49954642
7
Lattice="529.1772105638412 0.0 0.0 0.0 529.1772105638412 0.0 0.0 0.0 529.1772105638412" Properties=species:S:1:pos:R:3:forces_component_raw:R:3 ipi_comment="Step:         240  Bead:       0 forces_component_raw{ase}  cell{ase}" pbc="T T T"
O        0.00000000       0.00000000       0.00000000       1.77585410      -0.63414036      -0.17649553
H        0.00000000       0.00000000       0.00000000      -0.98798749      -0.24582567       1.23330572
H        0.00000000       0.00000000       0.00000000      -0.95542965       1.14841833      -0.81260736
O        0.00000000       0.00000000       0.00000000      -0.27078445       0.87336976      -0.56511834
H        0.00000000       0.00000000       0.00000000       0.07949832      -0.01803666      -0.07830402
H        0.00000000       0.00000000       0.00000000       0.48265753       0.45839941      -0.60372867
H        0.00000000       0.00000000       0.00000000      -0.12380836      -1.58218481       1.00294821
7
Lattice="529.1772105638412 0.0 0.0 0.0 529.1772105638412 0.0 0.0 0.0 529.1772105638412" Properties=species:S:1:pos:R:3:forces_component_raw:R:3 ipi_comment="Step:         260  Bead:       0 forces_component_raw{ase}  cell{ase}" pbc="T T T"
O        0.00000000       0.00000000       0.00000000       0.53103885      -1.53874232       0.67614040
H        0.00000000       0.00000000       0.00000000       0.03980138      -0.23216045       0.52093517
H        0.00000000       0.00000000       0.00000000      -0.50509938       1.41704893      -1.32094559
O        0.00000000       0.00000000       0.00000000      -0.19198062       2.33791687      -0.36519648
H        0.00000000       0.00000000       0.00000000       0.02562863      -0.22110534      -0.09489149
H        0.00000000       0.00000000       0.00000000      -0.13819739      -0.48677358       0.32389465
H        0.00000000       0.00000000       0.00000000       0.23880853      -1.27618410       0.26006334
7
Lattice="529.1772105638412 0.0 0.0 0.0 529.1772105638412 0.0 0.0 0.0 529.1772105638412" Properties=species:S:1:pos:R:3:forces_component_raw:R:3 ipi_comment="Step:         280  Bead:       0 forces_component_raw{ase}  cell{ase}" pbc="T T T"
O        0.00000000       0.00000000       0.00000000       0.30447721      -2.16249357       0.50490875
H        0.00000000       0.00000000       0.00000000       0.62725103       0.54859680      -0.80012333
H        0.00000000       0.00000000       0.00000000      -0.46566699       0.58030787      -0.34280822
O        0.00000000       0.00000000       0.00000000       0.16699807      -0.29604366      -0.07760069
H        0.00000000       0.00000000       0.00000000      -0.22015916       0.26993615       0.24644510
H        0.00000000       0.00000000       0.00000000      -0.18626760       0.37436168       0.22617129
H        0.00000000       0.00000000       0.00000000      -0.22663254       0.68533473       0.24300709
7
Lattice="529.1772105638412 0.0 0.0 0.0 529.1772105638412 0.0 0.0 0.0 529.1772105638412" Properties=species:S:1:pos:R:3:forces_component_raw:R:3 ipi_comment="Step:         300  Bead:       0 forces_component_raw{ase}  cell{ase}" pbc="T T T"
O        0.00000000       0.00000000       0.00000000      -0.90962002       0.80535285       1.39565273
H        0.00000000       0.00000000       0.00000000       0.90686865      -0.10874558      -1.13509243
H        0.00000000       0.00000000       0.00000000      -0.12325360       0.15048930      -0.00587478
O        0.00000000       0.00000000       0.00000000      -0.43144515      -1.04632498       0.77976067
H        0.00000000       0.00000000       0.00000000       0.30896968      -1.07074543      -0.43923110
H        0.00000000       0.00000000       0.00000000      -0.00491723      -0.22904299       0.11228796
H        0.00000000       0.00000000       0.00000000       0.25339769       1.49901683      -0.70750304
7
Lattice="529.1772105638412 0.0 0.0 0.0 529.1772105638412 0.0 0.0 0.0 529.1772105638412" Properties=species:S:1:pos:R:3:forces_component_raw:R:3 ipi_comment="Step:         320  Bead:       0 forces_component_raw{ase}  cell{ase}" pbc="T T T"
O        0.00000000       0.00000000       0.00000000      -0.90997065       0.40075666       0.33042479
H        0.00000000       0.00000000       0.00000000       1.01312188       0.10502064      -1.10077913
H        0.00000000       0.00000000       0.00000000      -0.08644797      -0.76511561       0.61222798
O        0.00000000       0.00000000       0.00000000      -0.11638432      -2.92357775       0.29068186
H        0.00000000       0.00000000       0.00000000       0.13590601       0.69612440       0.38283498
H        0.00000000       0.00000000       0.00000000       0.16161221       0.41864112       0.00286527
H        0.00000000       0.00000000       0.00000000      -0.19783716       2.06815055      -0.51825574
7
Lattice="529.1772105638412 0.0 0.0 0.0 529.1772105638412 0.0 0.0 0.0 529.1772105638412" Properties=species:S:1:pos:R:3:forces_component_raw:R:3 ipi_comment="Step:         340  Bead:       0 forces_component_raw{ase}  cell{ase}" pbc="T T T"
O        0.00000000       0.00000000       0.00000000       0.38387740       2.29806505      -0.39773622
H        0.00000000       0.00000000       0.00000000      -0.16994547      -0.22813390       0.09562489
H        0.00000000       0.00000000       0.00000000      -0.12256012      -1.86295365       0.62884710
O        0.00000000       0.00000000       0.00000000      -0.32433430      -0.78838366       0.95494261
H        0.00000000       0.00000000       0.00000000      -0.45156025      -0.20835173      -0.41600831
H        0.00000000       0.00000000       0.00000000       0.32441311      -0.62693298      -0.12018342
H        0.00000000       0.00000000       0.00000000       0.36010963       1.41669087      -0.74548665
7
Lattice="529.1772105638412 0.0 0.0 0.0 529.1772105638412 0.0 0.0 0.0 529.1772105638412" Properties=species:S:1:pos:R:3:forces_component_raw:R:3 ipi_comment="Step:         360  Bead:       0 forces_component_raw{ase}  cell{ase}" pbc="T T T"
O        0.00000000       0.00000000       0.00000000       1.87133601       1.03942425      -0.93012533
H        0.00000000       0.00000000       0.00000000      -1.20329857       0.35067536       0.57583166
H        0.00000000       0.00000000       0.00000000      -0.86975475      -1.03139770       0.65037710
O        0.00000000       0.00000000       0.00000000       0.92210127      -0.60967591      -0.12245719
H        0.00000000       0.00000000       0.00000000       0.29278676      -0.15392826      -0.25114104
H        0.00000000       0.00000000       0.00000000      -0.61399621       0.17782779       0.07965817
H        0.00000000       0.00000000       0.00000000      -0.39917451       0.22707448      -0.00214337
7
Lattice="529.1772105638412 0.0 0.0 0.0 529.1772105638412 0.0 0.0 0.0 529.1772105638412" Properties=species:S:1:pos:R:3:forces_component_raw:R:3 ipi_comment="Step:         380  Bead:       0 forces_component_raw{ase}  cell{ase}" pbc="T T T"
O        0.00000000       0.00000000       0.00000000       1.55738501       0.61289081      -0.77025050
H        0.00000000       0.00000000       0.00000000      -1.49974136      -0.15101038       0.40973907
H        0.00000000       0.00000000       0.00000000       0.01708541      -0.73195234       0.04318762
O        0.00000000       0.00000000       0.00000000      -0.23092728       1.02121015      -0.32235488
H        0.00000000       0.00000000       0.00000000       0.24265062      -0.11352515       0.21672894
H        0.00000000       0.00000000       0.00000000      -0.35354602      -0.41189698       0.34813688
H        0.00000000       0.00000000       0.00000000       0.26709361      -0.22571611       0.07481288
7
Lattice="529.1772105638412 0.0 0.0 0.0 529.1772105638412 0.0 0.0 0.0 529.1772105638412" Properties=species:S:1:pos:R:3:forces_component_raw:R:3 ipi_comment="Step:         400  Bead:       0 forces_component_raw{ase}  cell{ase}" pbc="T T T"
O        0.00000000       0.00000000       0.00000000       0.79087033      -2.25188143      -0.57619470
H        0.00000000       0.00000000       0.00000000      -0.74440742       0.45628134       0.06120362
H        0.00000000       0.00000000       0.00000000       0.20562127       1.22651832      -0.05159618
O        0.00000000       0.00000000       0.00000000      -0.25509020       1.61960051      -0.15987158
H        0.00000000       0.00000000       0.00000000      -0.10373357       0.11408288       0.08676827
H        0.00000000       0.00000000       0.00000000       0.16066297       0.10925233      -0.08266689
H        0.00000000       0.00000000       0.00000000      -0.05392339      -1.27385395       0.72235745
7
Lattice="529.1772105638412 0.0 0.0 0.0 529.1772105638412 0.0 0.0 0.0 529.1772105638412" Properties=species:S:1:pos:R:3:forces_component_raw:R:3 ipi_comment="Step:         420  Bead:       0 forces_component_raw{ase}  cell{ase}" pbc="T T T"
O        0.00000000       0.00000000       0.00000000      -1.45962018      -2.81595320      -1.19512491
H        0.00000000       0.00000000       0.00000000       0.39727019      -0.02307006       0.27072310
H        0.00000000       0.00000000       0.00000000       1.16611275       2.18236571       0.23481909
O        0.00000000       0.00000000       0.00000000      -0.39618750       1.99615738       0.02818421
H        0.00000000       0.00000000       0.00000000       0.04415959      -0.10577461       0.08384963
H        0.00000000       0.00000000       0.00000000       0.61898856       0.23953692      -0.42400073
H        0.00000000       0.00000000       0.00000000      -0.37072341      -1.47326214       1.00154961
7
Lattice="529.1772105638412 0.0 0.0 0.0 529.1772105638412 0.0 0.0 0.0 529.1772105638412" Properties=species:S:1:pos:R:3:forces_component_raw:R:3 ipi_comment="Step:         440  Bead:       0 forces_component_raw{ase}  cell{ase}" pbc="T T T"
O        0.00000000       0.00000000       0.00000000      -1.61883932      -1.24739615      -0.24574716
H        0.00000000       0.00000000       0.00000000       0.59275981       0.14720340       0.20788305
H        0.00000000       0.00000000       0.00000000       0.83865991       1.68379159       0.37613422
O        0.00000000       0.00000000       0.00000000      -0.61769234       2.01548014      -0.43820025
H        0.00000000       0.00000000       0.00000000      -0.01316990      -0.45190098      -0.21482706
H        0.00000000       0.00000000       0.00000000       1.10019859      -0.14585722      -0.67784044
H        0.00000000       0.00000000       0.00000000      -0.28191675      -2.00132079       0.99259765
7
Lattice="529.1772105638412 0.0 0.0 0.0 529.1772105638412 0.0 0.0 0.0 529.1772105638412" Properties=species:S:1:pos:R:3:forces_component_raw:R:3 ipi_comment="Step:         460  Bead:       0 forces_component_raw{ase}  cell{ase}" pbc="T T T"
O        0.00000000       0.00000000       0.00000000      -0.48226244       0.64455107       0.51387790
H        0.00000000       0.00000000       0.00000000       0.25943127      -0.29869224      -0.05004297
H        0.00000000       0.00000000       0.00000000       0.15619445       0.25009150       0.17953898
O        0.00000000       0.00000000       0.00000000      -1.06061163      -1.25386554      -0.37792678
H        0.00000000       0.00000000       0.00000000      -0.27406489       0.85232373       0.36979034
H        0.00000000       0.00000000       0.00000000       1.72796892       0.41974824      -0.98635564
H        0.00000000       0.00000000       0.00000000      -0.32665569      -0.61415675       0.35111817
7
Lattice="529.1772105638412 0.0 0.0 0.0 529.1772105638412 0.0 0.0 0.0 529.1772105638412" Properties=species:S:1:pos:R:3:forces_component_raw:R:3 ipi_comment="Step:         480  Bead:       0 forces_component_raw{ase}  cell{ase}" pbc="T T T"
O        0.00000000       0.00000000       0.00000000       0.94593777       1.70657466       1.01365965
H        0.00000000       0.00000000       0.00000000       0.10653280      -0.01389905      -0.06142206
H        0.00000000       0.00000000       0.00000000      -1.51920449      -0.93894387      -0.24528367
O        0.00000000       0.00000000       0.00000000      -1.59886500      -0.16109237       0.79984723
H        0.00000000       0.00000000       0.00000000       0.55661920      -0.68058772      -0.47398245
H        0.00000000       0.00000000       0.00000000       1.13162931      -0.30139416      -0.80672417
H        0.00000000       0.00000000       0.00000000       0.37735042       0.38934252      -0.22609452
7
Lattice="529.1772105638412 0.0 0.0 0.0 529.1772105638412 0.0 0.0 0.0 529.1772105638412" Properties=species:S:1:pos:R:3:forces_component_raw:R:3 ipi_comment="Step:         500  Bead:       0 forces_component_raw{ase}  cell{ase}" pbc="T T T"
O        0.00000000       0.00000000       0.00000000       3.32210757      -0.34047293      -0.06490269
H        0.00000000       0.00000000       0.00000000      -0.79759781       0.58807332      -0.28367386
H        0.00000000       0.00000000       0.00000000      -2.29144922      -1.22792302      -0.32815033
O        0.00000000       0.00000000       0.00000000       0.16355522      -0.32310761      -0.28130837
H        0.00000000       0.00000000       0.00000000       0.06604842       0.23397540       0.28185816
H        0.00000000       0.00000000       0.00000000      -0.19576618       0.19957307       0.17227710
H        0.00000000       0.00000000       0.00000000      -0.26689800       0.86988178       0.50389999
7
Lattice="529.1772105638412 0.0 0.0 0.0 529.1772105638412 0.0 0.0 0.0 529.1772105638412" Properties=species:S:1:pos:R:3:forces_component_raw:R:3 ipi_comment="Step:         520  Bead:       0 forces_component_raw{ase}  cell{ase}" pbc="T T T"
O        0.00000000       0.00000000       0.00000000       2.48464359       0.02009937       0.37105749
H        0.00000000       0.00000000       0.00000000      -0.01716720       0.14109717      -0.16304702
H        0.00000000       0.00000000       0.00000000      -2.12246626      -1.14579490      -0.69873750
O        0.00000000       0.00000000       0.00000000       0.24021166       0.68636369       0.24599936
H        0.00000000       0.00000000       0.00000000      -0.03266654       0.35773222      -0.35058264
H        0.00000000       0.00000000       0.00000000      -1.39057657      -0.76210040       1.01466923
H        0.00000000       0.00000000       0.00000000       0.83802133       0.70260284      -0.41935893
7
Lattice="529.1772105638412 0.0 0.0 0.0 529.1772105638412 0.0 0.0 0.0 529.1772105638412" Properties=species:S:1:pos:R:3:forces_component_raw:R:3 ipi_comment="Step:         540  Bead:       0 forces_component_raw{ase}  cell{ase}" pbc="T T T"
O        0.00000000       0.00000000       0.00000000       0.56371723       1.52675633      -0.20272448
H        0.00000000       0.00000000       0.00000000       0.27209434      -0.43882310       0.35515155
H        0.00000000       0.00000000       0.00000000      -0.77491366      -1.13885615      -0.64348721
O        0.00000000       0.00000000       0.00000000       0.81953397      -1.83701020      -2.09746406
H        0.00000000       0.00000000       0.00000000      -0.08303629      -0.22254323       0.35568758
H        0.00000000       0.00000000       0.00000000      -0.89331761       1.21234703       1.72091525
H        0.00000000       0.00000000       0.00000000       0.09592204       0.89812932       0.51192137
7
Lattice="529.1772105638412 0.0 0.0 0.0 529.1772105638412 0.0 0.0 0.0 529.1772105638412" Properties=species:S:1:pos:R:3:forces_component_raw:R:3 ipi_comment="Step:         560  Bead:       0 forces_component_raw{ase}  cell{ase}" pbc="T T T"
O        0.00000000       0.00000000       0.00000000      -0.83298361       0.46734315      -0.73548209
H        0.00000000       0.00000000       0.00000000       0.68490475      -0.52619364       0.67976881
H        0.00000000       0.00000000       0.00000000       0.32808251       0.39652771       0.34873806
O        0.00000000       0.00000000       0.00000000       1.56821315       0.49347647      -1.05973643
H        0.00000000       0.00000000       0.00000000      -0.20756552      -0.07722466      -0.41871200
H        0.00000000       0.00000000       0.00000000      -1.72213998       0.11002582       1.76116141
H        0.00000000       0.00000000       0.00000000       0.18148870      -0.86395486      -0.57573777
7
Lattice="529.1772105638412 0.0 0.0 0.0 529.1772105638412 0.0 0.0 0.0 529.1772105638412" Properties=species:S:1:pos:R:3:forces_component_raw:R:3 ipi_comment="Step:         580  Bead:       0 forces_component_raw{ase}  cell{ase}" pbc="T T T"
O        0.00000000       0.00000000       0.00000000      -2.16078456       1.26610567      -1.74948462
H        0.00000000       0.00000000       0.00000000       0.78177910      -1.29464899       0.86986654
H        0.00000000       0.00000000       0.00000000       1.20585410       0.70801889       1.58431683
O        0.00000000       0.00000000       0.00000000       1.27174491      -2.10450539      -1.89567958
H        0.00000000       0.00000000       0.00000000       0.05945670       0.34252735       0.31127338
H        0.00000000       0.00000000       0.00000000      -0.31111579       1.14871465       0.45253091
H        0.00000000       0.00000000       0.00000000      -0.84693446      -0.06621218       0.42717655
7
Lattice="529.1772105638412 0.0 0.0 0.0 529.1772105638412 0.0 0.0 0.0 529.1772105638412" Properties=species:S:1:pos:R:3:forces_component_raw:R:3 ipi_comment="Step:         600  Bead:       0 forces_component_raw{ase}  cell{ase}" pbc="T T T"
O        0.00000000       0.00000000       0.00000000      -1.84970118       0.71881250      -2.71131347
H        0.00000000       0.00000000       0.00000000       0.45896959      -0.79143217       0.84961472
H        0.00000000       0.00000000       0.00000000       1.22917332       0.54702213       2.10506919
O        0.00000000       0.00000000       0.00000000       0.84796855       1.38556155       0.36127973