7
Lattice="529.1772105638412 0.0 0.0 0.0 529.1772105638412 0.0 0.0 0.0 529.1772105638412" Properties=species:S:1:pos:R:3:forces_component_raw:R:3 ipi_comment="Step:           0  Bead:       0 forces_component_raw{ase}  cell{ase}" pbc="T T T"
O        0.00000000       0.00000000       0.00000000      -1.28486802      -1.25108640      -1.03736250
H        0.00000000       0.00000000       0.00000000       2.05888099       1.74550705       1.50692958
H        0.00000000       0.00000000       0.00000000      -0.75697922       0.58362634       0.37653383
O        0.00000000       0.00000000       0.00000000      -0.00701879      -0.32966992      -0.01074835
H        0.00000000       0.00000000       0.00000000      -0.07570725      -0.65200663      -0.57297712
H        0.00000000       0.00000000       0.00000000       0.43102732       0.08340311      -0.14546673
H        0.00000000       0.00000000       0.00000000      -0.36533504      -0.17977355      -0.11690871
7
Lattice="529.1772105638412 0.0 0.0 0.0 529.1772105638412 0.0 0.0 0.0 529.1772105638412" Properties=species:S:1:pos:R:3:forces_component_raw:R:3 ipi_comment="Step:          20  Bead:       0 forces_component_raw{ase}  cell{ase}" pbc="T T T"
O        0.00000000       0.00000000       0.00000000       0.88054321      -1.29371643      -1.96152910
H        0.00000000       0.00000000       0.00000000       0.95282434       0.57361149       0.66783975
H        0.00000000       0.00000000       0.00000000      -1.90470583       0.52272398       0.96413377
O        0.00000000       0.00000000       0.00000000      -0.65224762       0.27874573       0.65018295
H        0.00000000       0.00000000       0.00000000       0.49771529       0.17172901       0.29164716
H        0.00000000       0.00000000       0.00000000       0.80927162       0.22825981      -0.35683280
H        0.00000000       0.00000000       0.00000000      -0.58340101      -0.48135359      -0.25544174
7
Lattice="529.1772105638412 0.0 0.0 0.0 529.1772105638412 0.0 0.0 0.0 529.1772105638412" Properties=species:S:1:pos:R:3:forces_component_raw:R:3 ipi_comment="Step:          40  Bead:       0 forces_component_raw{ase}  cell{ase}" pbc="T T T"
O        0.00000000       0.00000000       0.00000000       0.88002847      -0.13116170      -0.31397631
H        0.00000000       0.00000000       0.00000000       0.35663664      -0.03597087      -0.16708743
H        0.00000000       0.00000000       0.00000000      -1.00070400      -0.20080765       0.21263157
O        0.00000000       0.00000000       0.00000000      -0.24691633       0.59209168       0.56794019
H        0.00000000       0.00000000       0.00000000      -0.48387071       0.19572211       0.18107446
H        0.00000000       0.00000000       0.00000000       0.42291193      -0.33126456      -0.41958249
H        0.00000000       0.00000000       0.00000000       0.07191399      -0.08860901      -0.06099999
7
Lattice="529.1772105638412 0.0 0.0 0.0 529.1772105638412 0.0 0.0 0.0 529.1772105638412" Properties=species:S:1:pos:R:3:forces_component_raw:R:3 ipi_comment="Step:          60  Bead:       0 forces_component_raw{ase}  cell{ase}" pbc="T T T"
O        0.00000000       0.00000000       0.00000000       0.54429117       0.09119332       0.27597109
H        0.00000000       0.00000000       0.00000000      -1.05897007      -0.85648301      -0.82470272
H        0.00000000       0.00000000       0.00000000       0.30723279       0.37946493       0.33227118
O        0.00000000       0.00000000       0.00000000      -1.42022071      -0.43305847       0.74376621
H        0.00000000       0.00000000       0.00000000       0.28649857       0.05197865      -0.12323994
H        0.00000000       0.00000000       0.00000000       1.03349308       0.01235057      -0.48043468
H        0.00000000       0.00000000       0.00000000       0.30767516       0.75455401       0.07636886
7
Lattice="529.1772105638412 0.0 0.0 0.0 529.1772105638412 0.0 0.0 0.0 529.1772105638412" Properties=species:S:1:pos:R:3:forces_component_raw:R:3 ipi_comment="Step:          80  Bead:       0 forces_component_raw{ase}  cell{ase}" pbc="T T T"
O        0.00000000       0.00000000       0.00000000       0.51286567       0.38175734       2.08069453
H        0.00000000       0.00000000       0.00000000      -1.20097650      -0.69901836      -1.72044926
H        0.00000000       0.00000000       0.00000000       0.94122295       0.22607665      -0.75649213
O        0.00000000       0.00000000       0.00000000      -0.52194898      -1.09126701       0.17234032
H        0.00000000       0.00000000       0.00000000      -0.28546006      -0.24924691       0.37003076
H        0.00000000       0.00000000       0.00000000       0.21040579       0.26455210      -0.00657583
H        0.00000000       0.00000000       0.00000000       0.34389112       1.16714620      -0.13954840
7
Lattice="529.1772105638412 0.0 0.0 0.0 529.1772105638412 0.0 0.0 0.0 529.1772105638412" Properties=species:S:1:pos:R:3:forces_component_raw:R:3 ipi_comment="Step:         100  Bead:       0 forces_component_raw{ase}  cell{ase}" pbc="T T T"
O        0.00000000       0.00000000       0.00000000       0.83400634      -0.05449985       2.35025122
H        0.00000000       0.00000000       0.00000000      -2.02246219      -0.13337415      -1.49944671
H        0.00000000       0.00000000       0.00000000       1.24053360       0.51604598      -0.57651139
O        0.00000000       0.00000000       0.00000000      -0.20073347      -1.70011919       0.14922994
H        0.00000000       0.00000000       0.00000000      -0.28907599       0.41532090       0.33291371
H        0.00000000       0.00000000       0.00000000      -0.70506939      -0.45220664       0.29381386
H        0.00000000       0.00000000       0.00000000       1.14280110       1.40883294      -1.05025062
7
Lattice="529.1772105638412 0.0 0.0 0.0 529.1772105638412 0.0 0.0 0.0 529.1772105638412" Properties=species:S:1:pos:R:3:forces_component_raw:R:3 ipi_comment="Step:         120  Bead:       0 forces_component_raw{ase}  cell{ase}" pbc="T T T"
O        0.00000000       0.00000000       0.00000000       0.23403459       0.70349910       2.59290633
H        0.00000000       0.00000000       0.00000000      -2.26619131      -0.27120178      -1.60543272
H        0.00000000       0.00000000       0.00000000       1.65934196       0.17401616      -0.73850423
O        0.00000000       0.00000000       0.00000000       1.61149129      -2.34294212       0.31516621
H        0.00000000       0.00000000       0.00000000       0.48833631      -0.69648226      -0.07299016
H        0.00000000       0.00000000       0.00000000      -1.35589475       0.41237826      -0.06839879
H        0.00000000       0.00000000       0.00000000      -0.37111810       2.02073263      -0.42274664
7
Lattice="529.1772105638412 0.0 0.0 0.0 529.1772105638412 0.0 0.0 0.0 529.1772105638412" Properties=species:S:1:pos:R:3:forces_component_raw:R:3 ipi_comment="Step:         140  Bead:       0 forces_component_raw{ase}  cell{ase}" pbc="T T T"
O        0.00000000       0.00000000       0.00000000      -0.29085695      -0.05037252       1.91535266
H        0.00000000       0.00000000       0.00000000      -1.80086923      -0.23540538      -1.36660021
H        0.00000000       0.00000000       0.00000000       2.14978729      -0.28556798      -0.82369483
O        0.00000000       0.00000000       0.00000000      -0.10166566       0.03131505       0.22939699
H        0.00000000       0.00000000       0.00000000       0.05534045       0.10810433       0.05189487
H        0.00000000       0.00000000       0.00000000      -0.66486343      -0.91138566      -0.04919521
H        0.00000000       0.00000000       0.00000000       0.65312753       1.34331215       0.04284574
7
Lattice="529.1772105638412 0.0 0.0 0.0 529.1772105638412 0.0 0.0 0.0 529.1772105638412" Properties=species:S:1:pos:R:3:forces_component_raw:R:3 ipi_comment="Step:         160  Bead:       0 forces_component_raw{ase}  cell{ase}" pbc="T T T"
O        0.00000000       0.00000000       0.00000000      -0.86574417       0.50501536       1.92009422
H        0.00000000       0.00000000       0.00000000      -0.74308072      -0.43324785      -1.32828599
H        0.00000000       0.00000000       0.00000000       1.70942497      -0.65366297      -0.76058981
O        0.00000000       0.00000000       0.00000000       0.53861799      -1.03503152      -0.85273780
H        0.00000000       0.00000000       0.00000000      -0.11870595       0.69299376       0.42283016
H        0.00000000       0.00000000       0.00000000      -0.23852406       0.21041608       0.16870079
H        0.00000000       0.00000000       0.00000000      -0.28198806       0.71351714       0.42998844
7
Lattice="529.1772105638412 0.0 0.0 0.0 529.1772105638412 0.0 0.0 0.0 529.1772105638412" Properties=species:S:1:pos:R:3:forces_component_raw:R:3 ipi_comment="Step:         180  Bead:       0 forces_component_raw{ase}  cell{ase}" pbc="T T T"
O        0.00000000       0.00000000       0.00000000      -0.97571634       0.25164096      -0.05547359
H        0.00000000       0.00000000       0.00000000      -0.42806853      -0.18206574      -0.50228906
H        0.00000000       0.00000000       0.00000000       1.33027426      -0.46219723       0.24305164
O        0.00000000       0.00000000       0.00000000      -1.33890406       0.78705164       0.65884312
H        0.00000000       0.00000000       0.00000000       0.28355053      -0.12785829       0.00141933
H        0.00000000       0.00000000       0.00000000       0.69274007      -0.48488558      -0.28709057
H        0.00000000       0.00000000       0.00000000       0.43612407       0.21831424      -0.05846086
7
Lattice="529.1772105638412 0.0 0.0 0.0 529.1772105638412 0.0 0.0 0.0 529.1772105638412" Properties=species:S:1:pos:R:3:forces_component_raw:R:3 ipi_comment="Step:         200  Bead:       0 forces_component_raw{ase}  cell{ase}" pbc="T T T"
O        0.00000000       0.00000000       0.00000000      -1.25522887       0.86603085      -1.33324868
H        0.00000000       0.00000000       0.00000000       0.29147096       0.21343929       1.26512091
H        0.00000000       0.00000000       0.00000000       0.90981144      -0.50198560       0.32006642
O        0.00000000       0.00000000       0.00000000      -0.12665177      -0.49142942      -0.36545890
H        0.00000000       0.00000000       0.00000000      -0.18300054      -0.33587490       0.16866051
H        0.00000000       0.00000000       0.00000000       0.87566566       0.40646640      -0.43643213
H        0.00000000       0.00000000       0.00000000      -0.51206687      -0.15664662       0.38129187
7
Lattice="529.1772105638412 0.0 0.0 0.0 529.1772105638412 0.0 0.0 0.0 529.1772105638412" Properties=species:S:1:pos:R:3:forces_component_raw:R:3 ipi_comment="Step:         220  Bead:       0 forces_component_raw{ase}  cell{ase}" pbc="T T T"
O        0.00000000       0.00000000       0.00000000       0.18102711       0.24363413      -1.80384241
H        0.00000000       0.00000000       0.00000000       0.13445767       0.14248491       2.51240994
H        0.00000000       0.00000000       0.00000000      -0.43812032       0.31277637      -0.26596568
O        0.00000000       0.00000000       0.00000000      -0.39134118       0.86877811      -0.74607741
H        0.00000000       0.00000000       0.00000000      -0.13007874       0.57352198       0.04079227
H        0.00000000       0.00000000       0.00000000       0.59676065      -0.40839397      -0.02664440
H        0.00000000       0.00000000       0.00000000       0.04729482      -1.73280154       0.28932768
7
Lattice="529.1772105638412 0.0 0.0 0.0 529.1772105638412 0.0 0.0 0.0 529.1772105638412" Properties=species:S:1:pos:R:3:forces_component_raw:R:3 ipi_comment="Step:         240  Bead:       0 forces_component_raw{ase}  cell{ase}" pbc="T T T"
O        0.00000000       0.00000000       0.00000000       2.46965476      -0.51129597      -2.20392394
H        0.00000000       0.00000000       0.00000000      -0.83757964      -0.08460428       3.33700214
H        0.00000000       0.00000000       0.00000000      -1.70946745       1.19273423      -0.83546670
O        0.00000000       0.00000000       0.00000000       0.55196471       1.16497720      -0.77782370
H        0.00000000       0.00000000       0.00000000      -0.16899467      -0.42168837      -0.23352581
H        0.00000000       0.00000000       0.00000000       0.55205696       0.49397280      -0.40099845
H        0.00000000       0.00000000       0.00000000      -0.85763466      -1.83409560       1.11473647
7
Lattice="529.1772105638412 0.0 0.0 0.0 529.1772105638412 0.0 0.0 0.0 529.1772105638412" Properties=species:S:1:pos:R:3:forces_component_raw:R:3 ipi_comment="Step:         260  Bead:       0 forces_component_raw{ase}  cell{ase}" pbc="T T T"
O        0.00000000       0.00000000       0.00000000       2.72298365      -1.71749246      -0.17088789
H        0.00000000       0.00000000       0.00000000      -0.46353893      -0.48516284       2.14696107
H        0.00000000       0.00000000       0.00000000      -2.34126941       1.83821102      -2.13690902
O        0.00000000       0.00000000       0.00000000      -0.73312341       3.10296653      -0.28888968
H        0.00000000       0.00000000       0.00000000       0.29802019       0.11258635      -0.33580842
H        0.00000000       0.00000000       0.00000000       0.40402864      -0.48734505       0.00605784
H        0.00000000       0.00000000       0.00000000       0.11289927      -2.36376355       0.77947610
7
Lattice="529.1772105638412 0.0 0.0 0.0 529.1772105638412 0.0 0.0 0.0 529.1772105638412" Properties=species:S:1:pos:R:3:forces_component_raw:R:3 ipi_comment="Step:         280  Bead:       0 forces_component_raw{ase}  cell{ase}" pbc="T T T"
O        0.00000000       0.00000000       0.00000000       2.28876447      -2.02555582       0.32490128
H        0.00000000       0.00000000       0.00000000      -0.33277407       0.06667841       0.42871391
H        0.00000000       0.00000000       0.00000000      -1.84307902       1.31976312      -1.12500025
O        0.00000000       0.00000000       0.00000000      -0.23671954       0.35433922      -0.52437241
H        0.00000000       0.00000000       0.00000000      -0.51589774       0.57621921       0.76950414
H        0.00000000       0.00000000       0.00000000       1.24045717       0.43007306      -0.46926929
H        0.00000000       0.00000000       0.00000000      -0.60075125      -0.72151720       0.59552262
7
Lattice="529.1772105638412 0.0 0.0 0.0 529.1772105638412 0.0 0.0 0.0 529.1772105638412" Properties=species:S:1:pos:R:3:forces_component_raw:R:3 ipi_comment="Step:         300  Bead:       0 forces_component_raw{ase}  cell{ase}" pbc="T T T"
O        0.00000000       0.00000000       0.00000000       0.88092329      -1.65548424       1.18620391
H        0.00000000       0.00000000       0.00000000       0.22503383       0.06152518      -0.29393327
H        0.00000000       0.00000000       0.00000000      -1.13905683       1.06092169      -1.03663913
O        0.00000000       0.00000000       0.00000000      -2.01690046       0.64010724       0.76466989
H        0.00000000       0.00000000       0.00000000       0.37164550      -0.02705926      -0.26762956
H        0.00000000       0.00000000       0.00000000       1.25942221      -0.28468695      -0.20904681
H        0.00000000       0.00000000       0.00000000       0.41893247       0.20467633      -0.14362503
7
Lattice="529.1772105638412 0.0 0.0 0.0 529.1772105638412 0.0 0.0 0.0 529.1772105638412" Properties=species:S:1:pos:R:3:forces_component_raw:R:3 ipi_comment="Step:         320  Bead:       0 forces_component_raw{ase}  cell{ase}" pbc="T T T"
O        0.00000000       0.00000000       0.00000000       0.34834516      -0.65469628       0.83435614
H        0.00000000       0.00000000       0.00000000       0.10096479       0.28969913      -1.00701598
H        0.00000000       0.00000000       0.00000000      -0.46198787       0.41352916       0.05906264
O        0.00000000       0.00000000       0.00000000      -0.22177059      -2.05100139       0.66644603
H        0.00000000       0.00000000       0.00000000       0.11277984      -0.14550506       0.13778647
H        0.00000000       0.00000000       0.00000000       0.73706648       0.73907749      -0.37659415
H        0.00000000       0.00000000       0.00000000      -0.61539781       1.40889696      -0.31404116
7
Lattice="529.1772105638412 0.0 0.0 0.0 529.1772105638412 0.0 0.0 0.0 529.1772105638412" Properties=species:S:1:pos:R:3:forces_component_raw:R:3 ipi_comment="Step:         340  Bead:       0 forces_component_raw{ase}  cell{ase}" pbc="T T T"
O        0.00000000       0.00000000       0.00000000      -0.89877308       1.98035638      -0.13226023
H        0.00000000       0.00000000       0.00000000       0.22579456      -0.18868142      -0.26705436
H        0.00000000       0.00000000       0.00000000       0.66106085      -1.49918797       0.64560370
O        0.00000000       0.00000000       0.00000000      -0.85285283      -0.62969443       0.38325882
H        0.00000000       0.00000000       0.00000000      -0.23662738       0.21748743      -0.05479488
H        0.00000000       0.00000000       0.00000000       0.02542200      -0.73047285       0.17856543
H        0.00000000       0.00000000       0.00000000       1.07597590       0.85019287      -0.75331847
7
Lattice="529.1772105638412 0.0 0.0 0.0 529.1772105638412 0.0 0.0 0.0 529.1772105638412" Properties=species:S:1:pos:R:3:forces_component_raw:R:3 ipi_comment="Step:         360  Bead:       0 forces_component_raw{ase}  cell{ase}" pbc="T T T"
O        0.00000000       0.00000000       0.00000000       0.31129831       1.75952845      -1.54847832
H        0.00000000       0.00000000       0.00000000      -0.01569601       0.01603630       0.05503570
H        0.00000000       0.00000000       0.00000000      -0.13255379      -1.64433158       1.36397538
O        0.00000000       0.00000000       0.00000000       1.21299759      -1.71758719      -1.04535977
H        0.00000000       0.00000000       0.00000000      -0.18960346       0.04654124       0.13102340
H        0.00000000       0.00000000       0.00000000      -1.12410295       0.55270165       0.91303202
H        0.00000000       0.00000000       0.00000000      -0.06233969       0.98711114       0.13077159
7
Lattice="529.1772105638412 0.0 0.0 0.0 529.1772105638412 0.0 0.0 0.0 529.1772105638412" Properties=species:S:1:pos:R:3:forces_component_raw:R:3 ipi_comment="Step:         380  Bead:       0 forces_component_raw{ase}  cell{ase}" pbc="T T T"
O        0.00000000       0.00000000       0.00000000       0.10111231       2.32443767      -0.81600241
H        0.00000000       0.00000000       0.00000000       0.02797624      -0.24418757       0.23496223
H        0.00000000       0.00000000       0.00000000      -0.33987861      -1.87732821       0.67818468
O        0.00000000       0.00000000       0.00000000       0.37354694      -0.00170677      -0.17564854
H        0.00000000       0.00000000       0.00000000       0.52938598      -0.50863145      -0.54312440
H        0.00000000       0.00000000       0.00000000      -1.32770767      -0.52220865       1.00851952
H        0.00000000       0.00000000       0.00000000       0.63556480       0.82962498      -0.38689108
7
Lattice="529.1772105638412 0.0 0.0 0.0 529.1772105638412 0.0 0.0 0.0 529.1772105638412" Properties=species:S:1:pos:R:3:forces_component_raw:R:3 ipi_comment="Step:         400  Bead:       0 forces_component_raw{ase}  cell{ase}" pbc="T T T"
O        0.00000000       0.00000000       0.00000000       0.37709473      -0.27637943      -0.72916332
H        0.00000000       0.00000000       0.00000000       0.12385546       0.27081733      -0.29998166
H        0.00000000       0.00000000       0.00000000      -0.18516271      -0.96658478       0.29530505
O        0.00000000       0.00000000       0.00000000       0.77249221       0.67652432      -0.44125612
H        0.00000000       0.00000000       0.00000000      -0.04464296       0.08932622       0.33205053
H        0.00000000       0.00000000       0.00000000      -0.85422175       0.12873694       0.64584743
H        0.00000000       0.00000000       0.00000000      -0.18941497       0.07755939       0.19719809
7
Lattice="529.1772105638412 0.0 0.0 0.0 529.1772105638412 0.0 0.0 0.0 529.1772105638412" Properties=species:S:1:pos:R:3:forces_component_raw:R:3 ipi_comment="Step:         420  Bead:       0 forces_component_raw{ase}  cell{ase}" pbc="T T T"
O        0.00000000       0.00000000       0.00000000       0.36006495      -0.91509523       0.76777686
H        0.00000000       0.00000000       0.00000000      -0.36139276       0.31532472      -0.58834011
H        0.00000000       0.00000000       0.00000000       0.17335861       0.18625056      -0.36211225
O        0.00000000       0.00000000       0.00000000       0.30841475       1.49683378       0.10660456
H        0.00000000       0.00000000       0.00000000      -0.07053137      -0.11678828       0.03462407
H        0.00000000       0.00000000       0.00000000      -0.16331724      -0.13251221       0.07067345
H        0.00000000       0.00000000       0.00000000      -0.24659694      -0.83401333      -0.02922658
7
Lattice="529.1772105638412 0.0 0.0 0.0 529.1772105638412 0.0 0.0 0.0 529.1772105638412" Properties=species:S:1:pos:R:3:forces_component_raw:R:3 ipi_comment="Step:         440  Bead:       0 forces_component_raw{ase}  cell{ase}" pbc="T T T"
O        0.00000000       0.00000000       0.00000000      -1.04999716      -1.11606837       0.06393067
H        0.00000000       0.00000000       0.00000000      -0.03048891       0.49342973       0.01670153
H        0.00000000       0.00000000       0.00000000       0.90185228       1.07579674       0.23463531
O        0.00000000       0.00000000       0.00000000      -0.07044648       1.22784268      -0.07317812
H        0.00000000       0.00000000       0.00000000       0.26827734      -0.02048418       0.13370441
H        0.00000000       0.00000000       0.00000000       1.01262338       0.19081232      -0.60951408
H        0.00000000       0.00000000       0.00000000      -1.03182045      -1.85132891       0.23372028
7
Lattice="529.1772105638412 0.0 0.0 0.0 529.1772105638412 0.0 0.0 0.0 529.1772105638412" Properties=species:S:1:pos:R:3:forces_component_raw:R:3 ipi_comment="Step:         460  Bead:       0 forces_component_raw{ase}  cell{ase}" pbc="T T T"
O        0.00000000       0.00000000       0.00000000      -1.12246412      -0.10268903       0.83250471
H        0.00000000       0.00000000       0.00000000      -0.26769150      -0.18983470      -0.03594635
H        0.00000000       0.00000000       0.00000000       1.15816416       1.40947628      -0.11452911
O        0.00000000       0.00000000       0.00000000      -1.83090176       1.02049539       1.03384182
H        0.00000000       0.00000000       0.00000000       0.14187918      -0.57849363      -0.31660635
H        0.00000000       0.00000000       0.00000000       2.24430620      -0.29757345      -1.26213425
H        0.00000000       0.00000000       0.00000000      -0.32329217      -1.26138087      -0.13713047
7
Lattice="529.1772105638412 0.0 0.0 0.0 529.1772105638412 0.0 0.0 0.0 529.1772105638412" Properties=species:S:1:pos:R:3:forces_component_raw:R:3 ipi_comment="Step:         480  Bead:       0 forces_component_raw{ase}  cell{ase}" pbc="T T T"
O        0.00000000       0.00000000       0.00000000       0.07281138      -0.39198398      -0.74700524
H        0.00000000       0.00000000       0.00000000      -0.17634817      -0.02503623       0.75072184
H        0.00000000       0.00000000       0.00000000       0.09266608       0.08038655       0.11892859
O        0.00000000       0.00000000       0.00000000      -2.36850467      -0.16740556       1.21280746
H        0.00000000       0.00000000       0.00000000      -0.01444624       0.43170829      -0.28471562
H        0.00000000       0.00000000       0.00000000       2.73898042       0.33001857      -1.25722258
H        0.00000000       0.00000000       0.00000000      -0.34515881      -0.25768763       0.20648555
7
Lattice="529.1772105638412 0.0 0.0 0.0 529.1772105638412 0.0 0.0 0.0 529.1772105638412" Properties=species:S:1:pos:R:3:forces_component_raw:R:3 ipi_comment="Step:         500  Bead:       0 forces_component_raw{ase}  cell{ase}" pbc="T T T"
O        0.00000000       0.00000000       0.00000000       1.42297813       0.53086722      -1.96958920
H        0.00000000       0.00000000       0.00000000      -1.07416851      -0.29121557       1.59552757
H        0.00000000       0.00000000       0.00000000      -0.32210921      -0.86646298      -0.11862139
O        0.00000000       0.00000000       0.00000000      -1.74175290       0.70514249       1.14623079
H        0.00000000       0.00000000       0.00000000       0.19086311      -0.13012787      -0.03944013
H        0.00000000       0.00000000       0.00000000       1.30373210      -0.19532753      -0.68595248
H        0.00000000       0.00000000       0.00000000       0.22045727       0.24712423       0.07184484
7
Lattice="529.1772105638412 0.0 0.0 0.0 529.1772105638412 0.0 0.0 0.0 529.1772105638412" Properties=species:S:1:pos:R:3:forces_component_raw:R:3 ipi_comment="Step:         520  Bead:       0 forces_component_raw{ase}  cell{ase}" pbc="T T T"
O        0.00000000       0.00000000       0.00000000       1.49169679       0.08738715      -1.70295141
H        0.00000000       0.00000000       0.00000000      -1.12453009       0.06129031       1.08758087
H        0.00000000       0.00000000       0.00000000      -0.29783566      -0.53118072       0.14755207
O        0.00000000       0.00000000       0.00000000       0.64566644      -0.48596667      -0.83760102
H        0.00000000       0.00000000       0.00000000       0.02667768       0.50604034       0.68597777
H        0.00000000       0.00000000       0.00000000      -0.98054660       0.10445965       0.60493737
H        0.00000000       0.00000000       0.00000000       0.23887143       0.25796993       0.01450435
7
Lattice="529.1772105638412 0.0 0.0 0.0 529.1772105638412 0.0 0.0 0.0 529.1772105638412" Properties=species:S:1:pos:R:3:forces_component_raw:R:3 ipi_comment="Step:         540  Bead:       0 forces_component_raw{ase}  cell{ase}" pbc="T T T"
O        0.00000000       0.00000000       0.00000000      -0.34331793       0.01028145       0.27771670
H        0.00000000       0.00000000       0.00000000       0.36206271      -0.55441539      -0.28689612
H        0.00000000       0.00000000       0.00000000       0.47646814       0.06724352      -0.35061788
O        0.00000000       0.00000000       0.00000000       1.14515436      -0.64991623      -0.58670131
H        0.00000000       0.00000000       0.00000000      -0.43456531      -0.05224165      -0.26417520
H        0.00000000       0.00000000       0.00000000      -1.37436708       0.90723276       1.19712669
H        0.00000000       0.00000000       0.00000000       0.16856511       0.27181554       0.01354712
7
Lattice="529.1772105638412 0.0 0.0 0.0 529.1772105638412 0.0 0.0 0.0 529.1772105638412" Properties=species:S:1:pos:R:3:forces_component_raw:R:3 ipi_comment="Step:         560  Bead:       0 forces_component_raw{ase}  cell{ase}" pbc="T T T"
O        0.00000000       0.00000000       0.00000000      -1.29461666      -2.52132243       0.77618889
H        0.00000000       0.00000000       0.00000000       1.45340345       0.90719186      -0.32292691
H        0.00000000       0.00000000       0.00000000      -0.17784035       1.75304231      -0.35593774
O        0.00000000       0.00000000       0.00000000       2.21748709      -0.47073227      -0.69099319
H        0.00000000       0.00000000       0.00000000       0.06816753       0.13684010      -0.09652796
H        0.00000000       0.00000000       0.00000000      -2.19619399       0.89567020       0.90035676
H        0.00000000       0.00000000       0.00000000      -0.07040708      -0.70068977      -0.21015983
7
Lattice="529.1772105638412 0.0 0.0 0.0 529.1772105638412 0.0 0.0 0.0 529.1772105638412" Properties=species:S:1:pos:R:3:forces_component_raw:R:3 ipi_comment="Step:         580  Bead:       0 forces_component_raw{ase}  cell{ase}" pbc="T T T"
O        0.00000000       0.00000000       0.00000000      -2.69331895      -0.03045013       1.07908197
H        0.00000000       0.00000000       0.00000000       1.81314222      -0.39620708      -0.00416926
H        0.00000000       0.00000000       0.00000000       0.68116720       1.14379012      -0.52011489
O        0.00000000       0.00000000       0.00000000       2.96150725      -1.27729822      -0.66306077
H        0.00000000       0.00000000       0.00000000      -0.18702554      -0.24629148       0.13238316
H        0.00000000       0.00000000       0.00000000      -2.21571948       0.77241413      -0.11409413
H        0.00000000       0.00000000       0.00000000      -0.35975271       0.03404265       0.08997392
7
Lattice="529.1772105638412 0.0 0.0 0.0 529.1772105638412 0.0 0.0 0.0 529.1772105638412" Properties=species:S:1:pos:R:3:forces_component_raw:R:3 ipi_comment="Step:         600  Bead:       0 forces_component_raw{ase}  cell{ase}" pbc="T T T"
O        0.00000000       0.00000000       0.00000000      -1.43924165      -0.38381836       0.80559075
H        0.00000000       0.00000000       0.00000000       1.35292434       0.64836570      -0.64583945
H        0.00000000       0.00000000       0.00000000      -0.53987767      -0.12848773       0.26844499
O        0.00000000       0.00000000       0.00000000       1.99762413       0.01682860       0.23778880