7
Lattice="529.1772105638412 0.0 0.0 0.0 529.1772105638412 0.0 0.0 0.0 529.1772105638412" Properties=species:S:1:pos:R:3:forces_component_raw:R:3 ipi_comment="Step:           0  Bead:       0 forces_component_raw{ase}  cell{ase}" pbc="T T T"
O        0.00000000       0.00000000       0.00000000      -1.24502143      -1.12765972      -0.93264926
H        0.00000000       0.00000000       0.00000000       2.03314334       1.66360344       1.44322488
H        0.00000000       0.00000000       0.00000000      -0.78476838       0.53223230       0.33430950
O        0.00000000       0.00000000       0.00000000       0.01964449      -0.33698411      -0.11189132
H        0.00000000       0.00000000       0.00000000      -0.06902105      -0.58276985      -0.50239871
H        0.00000000       0.00000000       0.00000000       0.37960948       0.04754271      -0.12147177
H        0.00000000       0.00000000       0.00000000      -0.33358646      -0.19596478      -0.10912333
7
Lattice="529.1772105638412 0.0 0.0 0.0 529.1772105638412 0.0 0.0 0.0 529.1772105638412" Properties=species:S:1:pos:R:3:forces_component_raw:R:3 ipi_comment="Step:          20  Bead:       0 forces_component_raw{ase}  cell{ase}" pbc="T T T"
O        0.00000000       0.00000000       0.00000000       0.03979721      -0.90846095      -1.31013174
H        0.00000000       0.00000000       0.00000000       0.95914295       0.48029236       0.56894520
H        0.00000000       0.00000000       0.00000000      -1.00016735       0.13805513       0.38018792
O        0.00000000       0.00000000       0.00000000      -0.69267357       0.32503498       0.45427020
H        0.00000000       0.00000000       0.00000000       0.39793939      -0.03662038       0.15462290
H        0.00000000       0.00000000       0.00000000       0.31183397       0.09146119      -0.15732472
H        0.00000000       0.00000000       0.00000000      -0.01587260      -0.08976233      -0.09056975
7
Lattice="529.1772105638412 0.0 0.0 0.0 529.1772105638412 0.0 0.0 0.0 529.1772105638412" Properties=species:S:1:pos:R:3:forces_component_raw:R:3 ipi_comment="Step:          40  Bead:       0 forces_component_raw{ase}  cell{ase}" pbc="T T T"
O        0.00000000       0.00000000       0.00000000       0.94215313      -0.17494939      -0.10374343
H        0.00000000       0.00000000       0.00000000      -0.41014242      -0.28866606      -0.43099545
H        0.00000000       0.00000000       0.00000000      -0.43272492       0.04308138       0.25042331
O        0.00000000       0.00000000       0.00000000       0.17427211      -0.03089575       0.05422598
H        0.00000000       0.00000000       0.00000000      -0.44597178       0.49722746       0.44737503
H        0.00000000       0.00000000       0.00000000       0.08573245      -0.21114740      -0.24703331
H        0.00000000       0.00000000       0.00000000       0.08668142       0.16534976       0.02974788
7
Lattice="529.1772105638412 0.0 0.0 0.0 529.1772105638412 0.0 0.0 0.0 529.1772105638412" Properties=species:S:1:pos:R:3:forces_component_raw:R:3 ipi_comment="Step:          60  Bead:       0 forces_component_raw{ase}  cell{ase}" pbc="T T T"
O        0.00000000       0.00000000       0.00000000       1.09705060      -0.71994873       0.07561464
H        0.00000000       0.00000000       0.00000000      -1.04038381      -0.76020278      -0.89209596
H        0.00000000       0.00000000       0.00000000      -0.10312381       0.32655013       0.29303749
O        0.00000000       0.00000000       0.00000000      -0.17951096       0.53552176       0.50972184
H        0.00000000       0.00000000       0.00000000       0.20666264       0.33511668      -0.24763915
H        0.00000000       0.00000000       0.00000000      -0.18580270       0.02502566       0.13305934
H        0.00000000       0.00000000       0.00000000       0.20510805       0.25793727       0.12830179
7
Lattice="529.1772105638412 0.0 0.0 0.0 529.1772105638412 0.0 0.0 0.0 529.1772105638412" Properties=species:S:1:pos:R:3:forces_component_raw:R:3 ipi_comment="Step:          80  Bead:       0 forces_component_raw{ase}  cell{ase}" pbc="T T T"
O        0.00000000       0.00000000       0.00000000       1.40290577       1.50457887       2.07064184
H        0.00000000       0.00000000       0.00000000      -1.65982953      -0.46546084      -0.95676818
H        0.00000000       0.00000000       0.00000000       0.41098308      -0.05977349      -0.57342103
O        0.00000000       0.00000000       0.00000000       0.12729502      -0.10941634      -0.36500188
H        0.00000000       0.00000000       0.00000000      -0.17576557      -1.20258903      -0.61779160
H        0.00000000       0.00000000       0.00000000      -0.34102097       0.09060565       0.33908881
H        0.00000000       0.00000000       0.00000000       0.23543220       0.24205519       0.10325204
7
Lattice="529.1772105638412 0.0 0.0 0.0 529.1772105638412 0.0 0.0 0.0 529.1772105638412" Properties=species:S:1:pos:R:3:forces_component_raw:R:3 ipi_comment="Step:         100  Bead:       0 forces_component_raw{ase}  cell{ase}" pbc="T T T"
O        0.00000000       0.00000000       0.00000000       0.50657825      -0.11089068       1.50876580
H        0.00000000       0.00000000       0.00000000      -1.65501354      -0.43981296      -0.69120847
H        0.00000000       0.00000000       0.00000000       0.93799136       0.60272938      -0.76285220
O        0.00000000       0.00000000       0.00000000      -0.10000175      -0.74184620      -0.50469620
H        0.00000000       0.00000000       0.00000000       0.45059829       0.62619711       0.41192258
H        0.00000000       0.00000000       0.00000000      -0.39536874       0.13357458       0.25767030
H        0.00000000       0.00000000       0.00000000       0.25521612      -0.06995122      -0.21960182
7
Lattice="529.1772105638412 0.0 0.0 0.0 529.1772105638412 0.0 0.0 0.0 529.1772105638412" Properties=species:S:1:pos:R:3:forces_component_raw:R:3 ipi_comment="Step:         120  Bead:       0 forces_component_raw{ase}  cell{ase}" pbc="T T T"
O        0.00000000       0.00000000       0.00000000       0.53812221       1.18580563       2.90511704
H        0.00000000       0.00000000       0.00000000      -1.21515694      -0.32401867      -0.83843760
H        0.00000000       0.00000000       0.00000000       0.77865402       0.10881592      -1.41389369
O        0.00000000       0.00000000       0.00000000       0.69884608      -0.38046854      -0.71594569
H        0.00000000       0.00000000       0.00000000      -0.52062973      -0.43981048      -0.09822689
H        0.00000000       0.00000000       0.00000000      -0.36022299      -0.29020722       0.18516557
H        0.00000000       0.00000000       0.00000000       0.08038734       0.13988337      -0.02377875
7
Lattice="529.1772105638412 0.0 0.0 0.0 529.1772105638412 0.0 0.0 0.0 529.1772105638412" Properties=species:S:1:pos:R:3:forces_component_raw:R:3 ipi_comment="Step:         140  Bead:       0 forces_component_raw{ase}  cell{ase}" pbc="T T T"
O        0.00000000       0.00000000       0.00000000      -1.13085145      -0.38148625       0.92264194
H        0.00000000       0.00000000       0.00000000      -0.71410571      -0.42927464       0.13510084
H        0.00000000       0.00000000       0.00000000       1.41618858       0.78278089      -0.68481139
O        0.00000000       0.00000000       0.00000000       0.03917642      -0.34256525      -0.63739357
H        0.00000000       0.00000000       0.00000000       0.40351244       0.32165340      -0.22387203
H        0.00000000       0.00000000       0.00000000      -0.00772319      -0.03653514       0.22484199
H        0.00000000       0.00000000       0.00000000      -0.00619709       0.08542699       0.26349221
7
Lattice="529.1772105638412 0.0 0.0 0.0 529.1772105638412 0.0 0.0 0.0 529.1772105638412" Properties=species:S:1:pos:R:3:forces_component_raw:R:3 ipi_comment="Step:         160  Bead:       0 forces_component_raw{ase}  cell{ase}" pbc="T T T"
O        0.00000000       0.00000000       0.00000000      -0.74368241       0.18010659       1.05152741
H        0.00000000       0.00000000       0.00000000       0.38619916       0.08838160      -0.23536236
H        0.00000000       0.00000000       0.00000000       0.43917067      -0.40653375      -0.99415582
O        0.00000000       0.00000000       0.00000000      -0.11674437       0.30303042       0.09804813
H        0.00000000       0.00000000       0.00000000      -0.15534673      -0.02102350       0.38339647
H        0.00000000       0.00000000       0.00000000       0.02012128      -0.29356380      -0.27261677
H        0.00000000       0.00000000       0.00000000       0.17028241       0.14960243      -0.03083706
7
Lattice="529.1772105638412 0.0 0.0 0.0 529.1772105638412 0.0 0.0 0.0 529.1772105638412" Properties=species:S:1:pos:R:3:forces_component_raw:R:3 ipi_comment="Step:         180  Bead:       0 forces_component_raw{ase}  cell{ase}" pbc="T T T"
O        0.00000000       0.00000000       0.00000000      -0.33424519      -2.09547516      -1.46703078
H        0.00000000       0.00000000       0.00000000       0.86864458       1.29003642       0.62662162
H        0.00000000       0.00000000       0.00000000      -0.07991055       0.14643254       0.27538227
O        0.00000000       0.00000000       0.00000000      -0.83073046       0.57385836       0.93666965
H        0.00000000       0.00000000       0.00000000      -0.04771751      -0.01451452      -0.26628891
H        0.00000000       0.00000000       0.00000000       0.30729500       0.29695511      -0.21328233
H        0.00000000       0.00000000       0.00000000       0.11666412      -0.19729275       0.10792848
7
Lattice="529.1772105638412 0.0 0.0 0.0 529.1772105638412 0.0 0.0 0.0 529.1772105638412" Properties=species:S:1:pos:R:3:forces_component_raw:R:3 ipi_comment="Step:         200  Bead:       0 forces_component_raw{ase}  cell{ase}" pbc="T T T"
O        0.00000000       0.00000000       0.00000000       0.30792125      -1.40317613      -1.04608485
H        0.00000000       0.00000000       0.00000000       1.24217110       1.31168248       0.05884649
H        0.00000000       0.00000000       0.00000000      -1.30751007      -0.26909542       0.59563316
O        0.00000000       0.00000000       0.00000000      -0.24561144       0.99420199       1.26688036
H        0.00000000       0.00000000       0.00000000      -0.01998112      -0.45107114      -0.15637489
H        0.00000000       0.00000000       0.00000000       0.07162129      -0.01234409      -0.49960932
H        0.00000000       0.00000000       0.00000000      -0.04861102      -0.17019770      -0.21929095
7
Lattice="529.1772105638412 0.0 0.0 0.0 529.1772105638412 0.0 0.0 0.0 529.1772105638412" Properties=species:S:1:pos:R:3:forces_component_raw:R:3 ipi_comment="Step:         220  Bead:       0 forces_component_raw{ase}  cell{ase}" pbc="T T T"
O        0.00000000       0.00000000       0.00000000       1.59326736      -1.28791932      -1.24030254
H        0.00000000       0.00000000       0.00000000       0.32631962       0.96554166       0.07059050
H        0.00000000       0.00000000       0.00000000      -2.27855719       0.36286306       1.23000462
O        0.00000000       0.00000000       0.00000000       0.18200572      -0.54520361      -0.41385386
H        0.00000000       0.00000000       0.00000000       0.21115432       0.46675653       0.51604776
H        0.00000000       0.00000000       0.00000000       0.19790240       0.22981093      -0.30924204
H        0.00000000       0.00000000       0.00000000      -0.23209222      -0.19184925       0.14675556
7
Lattice="529.1772105638412 0.0 0.0 0.0 529.1772105638412 0.0 0.0 0.0 529.1772105638412" Properties=species:S:1:pos:R:3:forces_component_raw:R:3 ipi_comment="Step:         240  Bead:       0 forces_component_raw{ase}  cell{ase}" pbc="T T T"
O        0.00000000       0.00000000       0.00000000       1.62766009       0.85975240       0.31932675
H        0.00000000       0.00000000       0.00000000       0.25052429       0.20115090      -0.10613506
H        0.00000000       0.00000000       0.00000000      -2.01001909      -0.11032863       0.63718129
O        0.00000000       0.00000000       0.00000000       0.55806725       0.42025771      -0.24448322
H        0.00000000       0.00000000       0.00000000      -0.14205164      -0.70852327      -0.31826699
H        0.00000000       0.00000000       0.00000000       0.00880793      -0.18935690      -0.21420983
H        0.00000000       0.00000000       0.00000000      -0.29298884      -0.47295221      -0.07341295
7
Lattice="529.1772105638412 0.0 0.0 0.0 529.1772105638412 0.0 0.0 0.0 529.1772105638412" Properties=species:S:1:pos:R:3:forces_component_raw:R:3 ipi_comment="Step:         260  Bead:       0 forces_component_raw{ase}  cell{ase}" pbc="T T T"
O        0.00000000       0.00000000       0.00000000       0.68439135      -0.08665215      -0.73515185
H        0.00000000       0.00000000       0.00000000      -0.13593570      -0.16697597       0.38534084
H        0.00000000       0.00000000       0.00000000      -0.65611730       0.21428735       0.29899770
O        0.00000000       0.00000000       0.00000000       0.26696711      -0.06379461       0.03395228
H        0.00000000       0.00000000       0.00000000       0.07175118       0.57517585       0.05703371
H        0.00000000       0.00000000       0.00000000      -0.03180682       0.13545482       0.01457349
H        0.00000000       0.00000000       0.00000000      -0.19924983      -0.60749529      -0.05474617
7
Lattice="529.1772105638412 0.0 0.0 0.0 529.1772105638412 0.0 0.0 0.0 529.1772105638412" Properties=species:S:1:pos:R:3:forces_component_raw:R:3 ipi_comment="Step:         280  Bead:       0 forces_component_raw{ase}  cell{ase}" pbc="T T T"
O        0.00000000       0.00000000       0.00000000      -0.53363932       1.11900587      -1.39115395
H        0.00000000       0.00000000       0.00000000      -0.15833807      -0.79986868       0.98901002
H        0.00000000       0.00000000       0.00000000       0.77783142      -0.21842891      -0.05378167
O        0.00000000       0.00000000       0.00000000       0.02471108       0.42640776       0.13762925
H        0.00000000       0.00000000       0.00000000       0.03193585      -0.28780566       0.14477288
H        0.00000000       0.00000000       0.00000000      -0.10767227      -0.06946467       0.25835640
H        0.00000000       0.00000000       0.00000000      -0.03482869      -0.16984572      -0.08483292
7
Lattice="529.1772105638412 0.0 0.0 0.0 529.1772105638412 0.0 0.0 0.0 529.1772105638412" Properties=species:S:1:pos:R:3:forces_component_raw:R:3 ipi_comment="Step:         300  Bead:       0 forces_component_raw{ase}  cell{ase}" pbc="T T T"
O        0.00000000       0.00000000       0.00000000      -1.04335090       0.67189419       0.22817363
H        0.00000000       0.00000000       0.00000000      -0.41932989      -1.19685675       0.25152398
H        0.00000000       0.00000000       0.00000000       1.51123749       0.03199566      -0.70016687
O        0.00000000       0.00000000       0.00000000      -0.05642966       0.15918241       0.08613436
H        0.00000000       0.00000000       0.00000000       0.06789725       0.15744828      -0.24100499
H        0.00000000       0.00000000       0.00000000      -0.05910640      -0.05341856       0.33967998
H        0.00000000       0.00000000       0.00000000      -0.00091790       0.22975476       0.03565992
7
Lattice="529.1772105638412 0.0 0.0 0.0 529.1772105638412 0.0 0.0 0.0 529.1772105638412" Properties=species:S:1:pos:R:3:forces_component_raw:R:3 ipi_comment="Step:         320  Bead:       0 forces_component_raw{ase}  cell{ase}" pbc="T T T"
O        0.00000000       0.00000000       0.00000000      -1.23339187       0.51713190       0.79694617
H        0.00000000       0.00000000       0.00000000      -0.42012691      -0.98930522       0.02968106
H        0.00000000       0.00000000       0.00000000       1.81569890       0.16554508      -1.20153498
O        0.00000000       0.00000000       0.00000000      -0.01056692       0.19868205      -0.05958958
H        0.00000000       0.00000000       0.00000000      -0.12659509      -0.26729183       0.27610484
H        0.00000000       0.00000000       0.00000000       0.01377795      -0.31176897       0.16844816
H        0.00000000       0.00000000       0.00000000      -0.03879607       0.68700700      -0.01005566
7
Lattice="529.1772105638412 0.0 0.0 0.0 529.1772105638412 0.0 0.0 0.0 529.1772105638412" Properties=species:S:1:pos:R:3:forces_component_raw:R:3 ipi_comment="Step:         340  Bead:       0 forces_component_raw{ase}  cell{ase}" pbc="T T T"
O        0.00000000       0.00000000       0.00000000      -1.88183066       0.18752874       1.76623488
H        0.00000000       0.00000000       0.00000000      -0.32223805      -0.77012695      -0.12165947
H        0.00000000       0.00000000       0.00000000       1.94457401       0.51488105      -1.38453178
O        0.00000000       0.00000000       0.00000000       0.15183862      -1.21123306      -0.12342555
H        0.00000000       0.00000000       0.00000000       0.19529382       0.48129327      -0.10208730
H        0.00000000       0.00000000       0.00000000      -0.04540103      -0.01280969       0.27642253
H        0.00000000       0.00000000       0.00000000      -0.04223671       0.81046662      -0.31095331
7
Lattice="529.1772105638412 0.0 0.0 0.0 529.1772105638412 0.0 0.0 0.0 529.1772105638412" Properties=species:S:1:pos:R:3:forces_component_raw:R:3 ipi_comment="Step:         360  Bead:       0 forces_component_raw{ase}  cell{ase}" pbc="T T T"
O        0.00000000       0.00000000       0.00000000      -1.15522160       1.05859862       1.82596518
H        0.00000000       0.00000000       0.00000000      -0.35600037      -0.50876298       0.08205743
H        0.00000000       0.00000000       0.00000000       1.54492074       0.15516552      -1.53337439
O        0.00000000       0.00000000       0.00000000       0.33609616      -1.19168631      -0.95927830
H        0.00000000       0.00000000       0.00000000      -0.35329804      -0.03954528       0.49910353
H        0.00000000       0.00000000       0.00000000       0.06156926      -0.18668282       0.46554176
H        0.00000000       0.00000000       0.00000000      -0.07806614       0.71291325      -0.38001521
7
Lattice="529.1772105638412 0.0 0.0 0.0 529.1772105638412 0.0 0.0 0.0 529.1772105638412" Properties=species:S:1:pos:R:3:forces_component_raw:R:3 ipi_comment="Step:         380  Bead:       0 forces_component_raw{ase}  cell{ase}" pbc="T T T"
O        0.00000000       0.00000000       0.00000000      -0.74586385       0.51807768       1.19341861
H        0.00000000       0.00000000       0.00000000      -0.21201009      -0.25464778       0.02946386
H        0.00000000       0.00000000       0.00000000       0.62074114       0.27804986      -0.55645872
O        0.00000000       0.00000000       0.00000000      -0.28537265      -0.88278779      -0.44839839
H        0.00000000       0.00000000       0.00000000       0.36370629      -0.17962536      -0.51376562
H        0.00000000       0.00000000       0.00000000       0.19584242       0.07132729       0.59639696
H        0.00000000       0.00000000       0.00000000       0.06295674       0.44960610      -0.30065670
7
Lattice="529.1772105638412 0.0 0.0 0.0 529.1772105638412 0.0 0.0 0.0 529.1772105638412" Properties=species:S:1:pos:R:3:forces_component_raw:R:3 ipi_comment="Step:         400  Bead:       0 forces_component_raw{ase}  cell{ase}" pbc="T T T"
O        0.00000000       0.00000000       0.00000000       0.56368495      -0.07039560      -0.80251835
H        0.00000000       0.00000000       0.00000000      -0.07795939      -0.04147369       0.04858807
H        0.00000000       0.00000000       0.00000000      -0.42281773      -0.07536241       0.43777420
O        0.00000000       0.00000000       0.00000000      -0.80053395       0.26213322      -0.23529854
H        0.00000000       0.00000000       0.00000000       0.22241262      -0.10008983       0.16116756
H        0.00000000       0.00000000       0.00000000       0.45717323      -0.06202166       0.35689068
H        0.00000000       0.00000000       0.00000000       0.05804027       0.08720997       0.03339638
7
Lattice="529.1772105638412 0.0 0.0 0.0 529.1772105638412 0.0 0.0 0.0 529.1772105638412" Properties=species:S:1:pos:R:3:forces_component_raw:R:3 ipi_comment="Step:         420  Bead:       0 forces_component_raw{ase}  cell{ase}" pbc="T T T"
O        0.00000000       0.00000000       0.00000000       2.07612511      -0.37076480      -2.63688293
H        0.00000000       0.00000000       0.00000000       0.24062365       0.35546567      -0.02444433
H        0.00000000       0.00000000       0.00000000      -1.84444398      -0.45225460       2.07007359
O        0.00000000       0.00000000       0.00000000      -0.23347790       1.26024547       0.97551947
H        0.00000000       0.00000000       0.00000000      -0.37935996      -0.11044115      -0.40795910
H        0.00000000       0.00000000       0.00000000       0.16374333      -0.16433262       0.09343776
H        0.00000000       0.00000000       0.00000000      -0.02321025      -0.51791797      -0.06974446
7
Lattice="529.1772105638412 0.0 0.0 0.0 529.1772105638412 0.0 0.0 0.0 529.1772105638412" Properties=species:S:1:pos:R:3:forces_component_raw:R:3 ipi_comment="Step:         440  Bead:       0 forces_component_raw{ase}  cell{ase}" pbc="T T T"
O        0.00000000       0.00000000       0.00000000       1.92825986      -0.94834656      -3.37892719
H        0.00000000       0.00000000       0.00000000       0.46198587       0.87258409       0.14508859
H        0.00000000       0.00000000       0.00000000      -2.25056838      -0.54772920       2.72943972
O        0.00000000       0.00000000       0.00000000      -0.73418625       1.27373246       0.50089081
H        0.00000000       0.00000000       0.00000000       0.38505638       0.00820288       0.08009105
H        0.00000000       0.00000000       0.00000000      -0.08157528       0.01641390      -0.56576918
H        0.00000000       0.00000000       0.00000000       0.29102780      -0.67485757       0.48918620
7
Lattice="529.1772105638412 0.0 0.0 0.0 529.1772105638412 0.0 0.0 0.0 529.1772105638412" Properties=species:S:1:pos:R:3:forces_component_raw:R:3 ipi_comment="Step:         460  Bead:       0 forces_component_raw{ase}  cell{ase}" pbc="T T T"
O        0.00000000       0.00000000       0.00000000       0.76690929      -0.65328721      -1.92086320
H        0.00000000       0.00000000       0.00000000       0.85946735       1.24450897       0.02265376
H        0.00000000       0.00000000       0.00000000      -1.61018979      -0.73740450       1.94046975
O        0.00000000       0.00000000       0.00000000       0.61826042       1.10838147       0.88403812
H        0.00000000       0.00000000       0.00000000      -0.13894494       0.15465903      -0.36618180
H        0.00000000       0.00000000       0.00000000      -0.66017321      -0.18029102      -0.57870584
H        0.00000000       0.00000000       0.00000000       0.16467086      -0.93656675       0.01858920
7
Lattice="529.1772105638412 0.0 0.0 0.0 529.1772105638412 0.0 0.0 0.0 529.1772105638412" Properties=species:S:1:pos:R:3:forces_component_raw:R:3 ipi_comment="Step:         480  Bead:       0 forces_component_raw{ase}  cell{ase}" pbc="T T T"
O        0.00000000       0.00000000       0.00000000      -0.34395983      -0.59945371      -0.96786319
H        0.00000000       0.00000000       0.00000000       0.59002516       1.08942522       0.46662914
H        0.00000000       0.00000000       0.00000000      -0.37309968      -0.02510897       0.78081425
O        0.00000000       0.00000000       0.00000000       0.50058342       0.18978832      -0.22055112
H        0.00000000       0.00000000       0.00000000      -0.03528788      -0.13442320       0.38815753
H        0.00000000       0.00000000       0.00000000      -0.72716981       0.01366703      -0.81947939
H        0.00000000       0.00000000       0.00000000       0.38890861      -0.53389470       0.37229278
7
Lattice="529.1772105638412 0.0 0.0 0.0 529.1772105638412 0.0 0.0 0.0 529.1772105638412" Properties=species:S:1:pos:R:3:forces_component_raw:R:3 ipi_comment="Step:         500  Bead:       0 forces_component_raw{ase}  cell{ase}" pbc="T T T"
O        0.00000000       0.00000000       0.00000000      -1.38082883       0.08754851       1.92390955
H        0.00000000       0.00000000       0.00000000       0.51165106       0.36224169      -0.11637123
H        0.00000000       0.00000000       0.00000000       0.39625783       0.23436692      -0.94750409
O        0.00000000       0.00000000       0.00000000       0.51845721       0.35433422       0.61646439
H        0.00000000       0.00000000       0.00000000       0.33505836      -0.22679942      -0.56815862
H        0.00000000       0.00000000       0.00000000      -0.51040950      -0.33612762      -0.69495543
H        0.00000000       0.00000000       0.00000000       0.12981387      -0.47556431      -0.21338457
7
Lattice="529.1772105638412 0.0 0.0 0.0 529.1772105638412 0.0 0.0 0.0 529.1772105638412" Properties=species:S:1:pos:R:3:forces_component_raw:R:3 ipi_comment="Step:         520  Bead:       0 forces_component_raw{ase}  cell{ase}" pbc="T T T"
O        0.00000000       0.00000000       0.00000000       0.07173274      -0.62569008       1.32697076
H        0.00000000       0.00000000       0.00000000      -0.46662818      -0.03233833       0.23996782
H        0.00000000       0.00000000       0.00000000       0.62994858       0.60844078      -1.80851004
O        0.00000000       0.00000000       0.00000000       0.60457481      -0.45255803      -0.21752953
H        0.00000000       0.00000000       0.00000000      -0.41673409       0.29914350       0.50555469
H        0.00000000       0.00000000       0.00000000      -0.39836527       0.10609296      -0.13960599
H        0.00000000       0.00000000       0.00000000      -0.02452859       0.09690920       0.09315230
7
Lattice="529.1772105638412 0.0 0.0 0.0 529.1772105638412 0.0 0.0 0.0 529.1772105638412" Properties=species:S:1:pos:R:3:forces_component_raw:R:3 ipi_comment="Step:         540  Bead:       0 forces_component_raw{ase}  cell{ase}" pbc="T T T"
O        0.00000000       0.00000000       0.00000000       1.17919741      -1.39320837       1.58112641
H        0.00000000       0.00000000       0.00000000      -1.28641405      -0.48902954      -0.16475250
H        0.00000000       0.00000000       0.00000000       0.32473034       1.04224396      -2.03990554
O        0.00000000       0.00000000       0.00000000      -0.60478070       0.52466253       0.49186051
H        0.00000000       0.00000000       0.00000000       0.32227523       0.32753663       0.04496361
H        0.00000000       0.00000000       0.00000000       0.59497903      -0.27385005       0.14094773
H        0.00000000       0.00000000       0.00000000      -0.52998726       0.26164485      -0.05424023
7
Lattice="529.1772105638412 0.0 0.0 0.0 529.1772105638412 0.0 0.0 0.0 529.1772105638412" Properties=species:S:1:pos:R:3:forces_component_raw:R:3 ipi_comment="Step:         560  Bead:       0 forces_component_raw{ase}  cell{ase}" pbc="T T T"
O        0.00000000       0.00000000       0.00000000       1.32625865      -0.56224281       1.52785365
H        0.00000000       0.00000000       0.00000000      -1.59328629      -0.95464146       0.01692353
H        0.00000000       0.00000000       0.00000000       0.68437096       1.15484445      -1.97980154
O        0.00000000       0.00000000       0.00000000      -0.73623928      -1.22758804      -0.56606343
H        0.00000000       0.00000000       0.00000000      -0.21805962      -0.07237666      -0.00958866
H        0.00000000       0.00000000       0.00000000       0.73934502       0.77911453       0.65074721
H        0.00000000       0.00000000       0.00000000      -0.20238944       0.88288998       0.35992923
7
Lattice="529.1772105638412 0.0 0.0 0.0 529.1772105638412 0.0 0.0 0.0 529.1772105638412" Properties=species:S:1:pos:R:3:forces_component_raw:R:3 ipi_comment="Step:         580  Bead:       0 forces_component_raw{ase}  cell{ase}" pbc="T T T"
O        0.00000000       0.00000000       0.00000000       0.44810382       0.53692115       2.03218868
H        0.00000000       0.00000000       0.00000000      -1.06187980      -1.49764296      -0.63728514
H        0.00000000       0.00000000       0.00000000       0.61369419       0.76462523      -1.56402441
O        0.00000000       0.00000000       0.00000000      -0.45611667      -0.07205036       0.02476523
H        0.00000000       0.00000000       0.00000000       0.02843495       0.06799666       0.02319155
H        0.00000000       0.00000000       0.00000000       1.32306264       0.01669057       0.54922667
H        0.00000000       0.00000000       0.00000000      -0.89529913       0.18345972      -0.42806258
7
Lattice="529.1772105638412 0.0 0.0 0.0 529.1772105638412 0.0 0.0 0.0 529.1772105638412" Properties=species:S:1:pos:R:3:forces_component_raw:R:3 ipi_comment="Step:         600  Bead:       0 forces_component_raw{ase}  cell{ase}" pbc="T T T"
O        0.00000000       0.00000000       0.00000000      -0.14636567       1.55826299       1.79035149
H        0.00000000       0.00000000       0.00000000      -0.57574872      -1.65179980      -0.58105546
H        0.00000000       0.00000000       0.00000000       0.45958196       0.38408954      -0.72389390
O        0.00000000       0.00000000       0.00000000      -0.15892327      -2.30037225      -0.91428016