7
Lattice="529.1772105638412 0.0 0.0 0.0 529.1772105638412 0.0 0.0 0.0 529.1772105638412" Properties=species:S:1:pos:R:3:forces_component_raw:R:3 ipi_comment="Step:           0  Bead:       0 forces_component_raw{ase}  cell{ase}" pbc="T T T"
O        0.00000000       0.00000000       0.00000000      -1.24905231      -1.24835201      -1.02638711
H        0.00000000       0.00000000       0.00000000       2.15422700       1.71369032       1.49943982
H        0.00000000       0.00000000       0.00000000      -0.89359462       0.57333618       0.35791407
O        0.00000000       0.00000000       0.00000000      -0.01701524      -0.25086015       0.01353294
H        0.00000000       0.00000000       0.00000000      -0.07826444      -0.61311860      -0.54346057
H        0.00000000       0.00000000       0.00000000       0.49934407       0.05051799      -0.17813388
H        0.00000000       0.00000000       0.00000000      -0.41564445      -0.22521373      -0.12290526
7
Lattice="529.1772105638412 0.0 0.0 0.0 529.1772105638412 0.0 0.0 0.0 529.1772105638412" Properties=species:S:1:pos:R:3:forces_component_raw:R:3 ipi_comment="Step:          20  Bead:       0 forces_component_raw{ase}  cell{ase}" pbc="T T T"
O        0.00000000       0.00000000       0.00000000       0.89864914      -1.35824009      -1.99535443
H        0.00000000       0.00000000       0.00000000       1.08658831       0.63091632       0.70277974
H        0.00000000       0.00000000       0.00000000      -2.08051463       0.55606478       0.99892188
O        0.00000000       0.00000000       0.00000000      -0.66796184       0.38085893       0.68176468
H        0.00000000       0.00000000       0.00000000       0.51072231       0.12250904       0.27554701
H        0.00000000       0.00000000       0.00000000       0.93858776       0.19781819      -0.41669485
H        0.00000000       0.00000000       0.00000000      -0.68607106      -0.52992716      -0.24696403
7
Lattice="529.1772105638412 0.0 0.0 0.0 529.1772105638412 0.0 0.0 0.0 529.1772105638412" Properties=species:S:1:pos:R:3:forces_component_raw:R:3 ipi_comment="Step:          40  Bead:       0 forces_component_raw{ase}  cell{ase}" pbc="T T T"
O        0.00000000       0.00000000       0.00000000       0.91019417      -0.22953872      -0.31440824
H        0.00000000       0.00000000       0.00000000       0.32904147       0.05111424      -0.11436654
H        0.00000000       0.00000000       0.00000000      -1.02415425      -0.10619500       0.26840664
O        0.00000000       0.00000000       0.00000000      -0.27259830       0.70169467       0.67275310
H        0.00000000       0.00000000       0.00000000      -0.43755211       0.05166479       0.02113803
H        0.00000000       0.00000000       0.00000000       0.54084260      -0.28087650      -0.45525001
H        0.00000000       0.00000000       0.00000000      -0.04577357      -0.18786346      -0.07827299
7
Lattice="529.1772105638412 0.0 0.0 0.0 529.1772105638412 0.0 0.0 0.0 529.1772105638412" Properties=species:S:1:pos:R:3:forces_component_raw:R:3 ipi_comment="Step:          60  Bead:       0 forces_component_raw{ase}  cell{ase}" pbc="T T T"
O        0.00000000       0.00000000       0.00000000       0.65044026      -0.19654012       0.26979093
H        0.00000000       0.00000000       0.00000000      -1.04799258      -0.75812318      -0.80413751
H        0.00000000       0.00000000       0.00000000       0.18637548       0.49347023       0.39437322
O        0.00000000       0.00000000       0.00000000      -1.48910847      -0.45773122       0.81509466
H        0.00000000       0.00000000       0.00000000       0.27766218       0.20235873      -0.17730155
H        0.00000000       0.00000000       0.00000000       1.12106557       0.01827862      -0.53601805
H        0.00000000       0.00000000       0.00000000       0.30155757       0.69828695       0.03819830
7
Lattice="529.1772105638412 0.0 0.0 0.0 529.1772105638412 0.0 0.0 0.0 529.1772105638412" Properties=species:S:1:pos:R:3:forces_component_raw:R:3 ipi_comment="Step:          80  Bead:       0 forces_component_raw{ase}  cell{ase}" pbc="T T T"
O        0.00000000       0.00000000       0.00000000       0.59602990       0.16689681       2.09032859
H        0.00000000       0.00000000       0.00000000      -1.14971996      -0.62891986      -1.72512925
H        0.00000000       0.00000000       0.00000000       0.85047417       0.27141540      -0.77324887
O        0.00000000       0.00000000       0.00000000      -0.61603628      -1.10725798       0.31099979
H        0.00000000       0.00000000       0.00000000      -0.34666992      -0.07116622       0.38259264
H        0.00000000       0.00000000       0.00000000       0.36814868       0.27583713      -0.11715391
H        0.00000000       0.00000000       0.00000000       0.29777341       1.09319472      -0.16838899
7
Lattice="529.1772105638412 0.0 0.0 0.0 529.1772105638412 0.0 0.0 0.0 529.1772105638412" Properties=species:S:1:pos:R:3:forces_component_raw:R:3 ipi_comment="Step:         100  Bead:       0 forces_component_raw{ase}  cell{ase}" pbc="T T T"
O        0.00000000       0.00000000       0.00000000       0.98007896      -0.36310454       2.55206809
H        0.00000000       0.00000000       0.00000000      -2.05871541      -0.03891978      -1.59089891
H        0.00000000       0.00000000       0.00000000       1.21657708       0.55128892      -0.69151793
O        0.00000000       0.00000000       0.00000000      -0.16851729      -1.86971772       0.34475318
H        0.00000000       0.00000000       0.00000000      -0.33390757       0.56423200       0.21677158
H        0.00000000       0.00000000       0.00000000      -0.71191039      -0.35383675       0.25394005
H        0.00000000       0.00000000       0.00000000       1.07639463       1.51005788      -1.08511606
7
Lattice="529.1772105638412 0.0 0.0 0.0 529.1772105638412 0.0 0.0 0.0 529.1772105638412" Properties=species:S:1:pos:R:3:forces_component_raw:R:3 ipi_comment="Step:         120  Bead:       0 forces_component_raw{ase}  cell{ase}" pbc="T T T"
O        0.00000000       0.00000000       0.00000000       0.36941791       0.51431226       2.67536830
H        0.00000000       0.00000000       0.00000000      -2.30333036      -0.21300672      -1.64876376
H        0.00000000       0.00000000       0.00000000       1.60497735       0.21650377      -0.72484412
O        0.00000000       0.00000000       0.00000000       1.67213382      -2.40222153       0.46774303
H        0.00000000       0.00000000       0.00000000       0.38775759      -0.56316600      -0.17351618
H        0.00000000       0.00000000       0.00000000      -1.36303771       0.38964955      -0.10996798
H        0.00000000       0.00000000       0.00000000      -0.36791860       2.05792868      -0.48601929
7
Lattice="529.1772105638412 0.0 0.0 0.0 529.1772105638412 0.0 0.0 0.0 529.1772105638412" Properties=species:S:1:pos:R:3:forces_component_raw:R:3 ipi_comment="Step:         140  Bead:       0 forces_component_raw{ase}  cell{ase}" pbc="T T T"
O        0.00000000       0.00000000       0.00000000      -0.19315819      -0.19542926       1.93069250
H        0.00000000       0.00000000       0.00000000      -1.73356542      -0.16655294      -1.33525303
H        0.00000000       0.00000000       0.00000000       2.05241803      -0.23946443      -0.83632940
O        0.00000000       0.00000000       0.00000000      -0.00554126       0.17297822       0.39514635
H        0.00000000       0.00000000       0.00000000      -0.03489764       0.05794928      -0.08477868
H        0.00000000       0.00000000       0.00000000      -0.67371599      -0.85986309      -0.09279734
H        0.00000000       0.00000000       0.00000000       0.58846048       1.23038222       0.02331961
7
Lattice="529.1772105638412 0.0 0.0 0.0 529.1772105638412 0.0 0.0 0.0 529.1772105638412" Properties=species:S:1:pos:R:3:forces_component_raw:R:3 ipi_comment="Step:         160  Bead:       0 forces_component_raw{ase}  cell{ase}" pbc="T T T"
O        0.00000000       0.00000000       0.00000000      -0.86160050       0.54829370       2.01286239
H        0.00000000       0.00000000       0.00000000      -0.80098300      -0.32756428      -1.25838272
H        0.00000000       0.00000000       0.00000000       1.72129305      -0.59356300      -0.72514038
O        0.00000000       0.00000000       0.00000000       0.66095147      -0.93541961      -0.71454182
H        0.00000000       0.00000000       0.00000000      -0.17920623       0.60755977       0.25720882
H        0.00000000       0.00000000       0.00000000      -0.16192291       0.25784977       0.05878805
H        0.00000000       0.00000000       0.00000000      -0.37853187       0.44284364       0.36920566
7
Lattice="529.1772105638412 0.0 0.0 0.0 529.1772105638412 0.0 0.0 0.0 529.1772105638412" Properties=species:S:1:pos:R:3:forces_component_raw:R:3 ipi_comment="Step:         180  Bead:       0 forces_component_raw{ase}  cell{ase}" pbc="T T T"
O        0.00000000       0.00000000       0.00000000      -0.96689913       0.11910968      -0.12993226
H        0.00000000       0.00000000       0.00000000      -0.34805919      -0.12883024      -0.37837153
H        0.00000000       0.00000000       0.00000000       1.25090480      -0.42686091       0.20102163
O        0.00000000       0.00000000       0.00000000      -1.29335309       0.78276011       0.73878240
H        0.00000000       0.00000000       0.00000000       0.28800839      -0.07637979      -0.03773380
H        0.00000000       0.00000000       0.00000000       0.71599180      -0.40229437      -0.32873426
H        0.00000000       0.00000000       0.00000000       0.35340643       0.13249552      -0.06503218
7
Lattice="529.1772105638412 0.0 0.0 0.0 529.1772105638412 0.0 0.0 0.0 529.1772105638412" Properties=species:S:1:pos:R:3:forces_component_raw:R:3 ipi_comment="Step:         200  Bead:       0 forces_component_raw{ase}  cell{ase}" pbc="T T T"
O        0.00000000       0.00000000       0.00000000      -1.30785110       0.82841734      -1.44134349
H        0.00000000       0.00000000       0.00000000       0.40324856       0.19387809       1.38144551
H        0.00000000       0.00000000       0.00000000       0.88815701      -0.51081416       0.23653894
O        0.00000000       0.00000000       0.00000000      -0.18556460      -0.36281732      -0.25010046
H        0.00000000       0.00000000       0.00000000      -0.20769464      -0.31927157       0.19639393
H        0.00000000       0.00000000       0.00000000       0.93728161       0.40018717      -0.48556917
H        0.00000000       0.00000000       0.00000000      -0.52757685      -0.22957955       0.36263474
7
Lattice="529.1772105638412 0.0 0.0 0.0 529.1772105638412 0.0 0.0 0.0 529.1772105638412" Properties=species:S:1:pos:R:3:forces_component_raw:R:3 ipi_comment="Step:         220  Bead:       0 forces_component_raw{ase}  cell{ase}" pbc="T T T"
O        0.00000000       0.00000000       0.00000000       0.23861464       0.15238172      -1.91475412
H        0.00000000       0.00000000       0.00000000       0.20730007       0.10589336       2.65454206
H        0.00000000       0.00000000       0.00000000      -0.45992712       0.31809538      -0.37617006
O        0.00000000       0.00000000       0.00000000      -0.36745237       0.84615534      -0.56890400
H        0.00000000       0.00000000       0.00000000      -0.23752232       0.62289493       0.02088985
H        0.00000000       0.00000000       0.00000000       0.61430211      -0.33992248      -0.07277193
H        0.00000000       0.00000000       0.00000000       0.00468499      -1.70549825       0.25716821
7
Lattice="529.1772105638412 0.0 0.0 0.0 529.1772105638412 0.0 0.0 0.0 529.1772105638412" Properties=species:S:1:pos:R:3:forces_component_raw:R:3 ipi_comment="Step:         240  Bead:       0 forces_component_raw{ase}  cell{ase}" pbc="T T T"
O        0.00000000       0.00000000       0.00000000       2.38705752      -0.47523880      -2.20817044
H        0.00000000       0.00000000       0.00000000      -0.71146009      -0.19666898       3.48296311
H        0.00000000       0.00000000       0.00000000      -1.67322395       1.16761767      -1.05800910
O        0.00000000       0.00000000       0.00000000       0.49707456       1.26563672      -0.67895680
H        0.00000000       0.00000000       0.00000000      -0.21631168      -0.38772530      -0.20496226
H        0.00000000       0.00000000       0.00000000       0.51882167       0.45800595      -0.38403623
H        0.00000000       0.00000000       0.00000000      -0.80195804      -1.83162726       1.05117173
7
Lattice="529.1772105638412 0.0 0.0 0.0 529.1772105638412 0.0 0.0 0.0 529.1772105638412" Properties=species:S:1:pos:R:3:forces_component_raw:R:3 ipi_comment="Step:         260  Bead:       0 forces_component_raw{ase}  cell{ase}" pbc="T T T"
O        0.00000000       0.00000000       0.00000000       2.75039615      -1.79884940      -0.23045216
H        0.00000000       0.00000000       0.00000000      -0.43231696      -0.52887526       2.28541760
H        0.00000000       0.00000000       0.00000000      -2.32780167       1.85084153      -2.27160004
O        0.00000000       0.00000000       0.00000000      -0.59972372       3.08349675      -0.10902794
H        0.00000000       0.00000000       0.00000000       0.31896222       0.02036495      -0.42648108
H        0.00000000       0.00000000       0.00000000       0.28804291      -0.35526606      -0.00306020
H        0.00000000       0.00000000       0.00000000       0.00244107      -2.27171250       0.75520383
7
Lattice="529.1772105638412 0.0 0.0 0.0 529.1772105638412 0.0 0.0 0.0 529.1772105638412" Properties=species:S:1:pos:R:3:forces_component_raw:R:3 ipi_comment="Step:         280  Bead:       0 forces_component_raw{ase}  cell{ase}" pbc="T T T"
O        0.00000000       0.00000000       0.00000000       2.12083075      -1.97944988       0.46520971
H        0.00000000       0.00000000       0.00000000      -0.26550693       0.12639222       0.41604475
H        0.00000000       0.00000000       0.00000000      -1.82461768       1.39924314      -1.13065082
O        0.00000000       0.00000000       0.00000000      -0.11553803       0.44776103      -0.48661457
H        0.00000000       0.00000000       0.00000000      -0.45739858       0.26047418       0.60314249
H        0.00000000       0.00000000       0.00000000       1.31662725       0.56830269      -0.54609420
H        0.00000000       0.00000000       0.00000000      -0.77439678      -0.82272339       0.67896265
7
Lattice="529.1772105638412 0.0 0.0 0.0 529.1772105638412 0.0 0.0 0.0 529.1772105638412" Properties=species:S:1:pos:R:3:forces_component_raw:R:3 ipi_comment="Step:         300  Bead:       0 forces_component_raw{ase}  cell{ase}" pbc="T T T"
O        0.00000000       0.00000000       0.00000000       0.89281878      -1.78794802       1.09671971
H        0.00000000       0.00000000       0.00000000       0.26525948       0.02528030      -0.25804686
H        0.00000000       0.00000000       0.00000000      -1.09103404       1.03420793      -1.10041815
O        0.00000000       0.00000000       0.00000000      -1.89407625       0.65558082       0.93941050
H        0.00000000       0.00000000       0.00000000       0.34784693       0.03222363      -0.27932733
H        0.00000000       0.00000000       0.00000000       1.16965633      -0.14944544      -0.22875827
H        0.00000000       0.00000000       0.00000000       0.30952877       0.19010079      -0.16957961
7
Lattice="529.1772105638412 0.0 0.0 0.0 529.1772105638412 0.0 0.0 0.0 529.1772105638412" Properties=species:S:1:pos:R:3:forces_component_raw:R:3 ipi_comment="Step:         320  Bead:       0 forces_component_raw{ase}  cell{ase}" pbc="T T T"
O        0.00000000       0.00000000       0.00000000       0.29710338      -0.76555441       0.79934338
H        0.00000000       0.00000000       0.00000000       0.13846870       0.26559495      -0.93448871
H        0.00000000       0.00000000       0.00000000      -0.41951139       0.40879026      -0.04825162
O        0.00000000       0.00000000       0.00000000      -0.30743390      -1.95452716       0.82634515
H        0.00000000       0.00000000       0.00000000       0.11129783      -0.06291084       0.14780192
H        0.00000000       0.00000000       0.00000000       0.75455791       0.69065890      -0.39867554
H        0.00000000       0.00000000       0.00000000      -0.57448253       1.41794831      -0.39207458
7
Lattice="529.1772105638412 0.0 0.0 0.0 529.1772105638412 0.0 0.0 0.0 529.1772105638412" Properties=species:S:1:pos:R:3:forces_component_raw:R:3 ipi_comment="Step:         340  Bead:       0 forces_component_raw{ase}  cell{ase}" pbc="T T T"
O        0.00000000       0.00000000       0.00000000      -0.82750844       1.90624171      -0.27765342
H        0.00000000       0.00000000       0.00000000       0.17933225      -0.17693599      -0.11010293
H        0.00000000       0.00000000       0.00000000       0.67133846      -1.47976732       0.63670546
O        0.00000000       0.00000000       0.00000000      -0.82480734      -0.65151961       0.60783319
H        0.00000000       0.00000000       0.00000000      -0.32486272       0.27524584      -0.13954659
H        0.00000000       0.00000000       0.00000000       0.02072653      -0.75702443       0.13513801
H        0.00000000       0.00000000       0.00000000       1.10578124       0.88375979      -0.85237373
7
Lattice="529.1772105638412 0.0 0.0 0.0 529.1772105638412 0.0 0.0 0.0 529.1772105638412" Properties=species:S:1:pos:R:3:forces_component_raw:R:3 ipi_comment="Step:         360  Bead:       0 forces_component_raw{ase}  cell{ase}" pbc="T T T"
O        0.00000000       0.00000000       0.00000000       0.35333552       1.85965103      -1.69481287
H        0.00000000       0.00000000       0.00000000      -0.08047897       0.00402966       0.21637298
H        0.00000000       0.00000000       0.00000000      -0.12722870      -1.70977814       1.38460831
O        0.00000000       0.00000000       0.00000000       1.19645775      -1.62356366      -0.95165243
H        0.00000000       0.00000000       0.00000000      -0.22908836       0.10075464       0.12105667
H        0.00000000       0.00000000       0.00000000      -1.02546659       0.50270500       0.80994626
H        0.00000000       0.00000000       0.00000000      -0.08753064       0.86620147       0.11448109
7
Lattice="529.1772105638412 0.0 0.0 0.0 529.1772105638412 0.0 0.0 0.0 529.1772105638412" Properties=species:S:1:pos:R:3:forces_component_raw:R:3 ipi_comment="Step:         380  Bead:       0 forces_component_raw{ase}  cell{ase}" pbc="T T T"
O        0.00000000       0.00000000       0.00000000       0.21443238       2.33780511      -1.02656020
H        0.00000000       0.00000000       0.00000000      -0.05994670      -0.26940872       0.49542994
H        0.00000000       0.00000000       0.00000000      -0.36078259      -1.88322864       0.65339309
O        0.00000000       0.00000000       0.00000000       0.46396804      -0.09660297      -0.22513668
H        0.00000000       0.00000000       0.00000000       0.47002252      -0.36422330      -0.50450785
H        0.00000000       0.00000000       0.00000000      -1.37689822      -0.56755783       1.02253524
H        0.00000000       0.00000000       0.00000000       0.64920458       0.84321635      -0.41515353
7
Lattice="529.1772105638412 0.0 0.0 0.0 529.1772105638412 0.0 0.0 0.0 529.1772105638412" Properties=species:S:1:pos:R:3:forces_component_raw:R:3 ipi_comment="Step:         400  Bead:       0 forces_component_raw{ase}  cell{ase}" pbc="T T T"
O        0.00000000       0.00000000       0.00000000       0.55269777      -0.43060836      -0.82483096
H        0.00000000       0.00000000       0.00000000       0.05711058       0.24903980      -0.18536943
H        0.00000000       0.00000000       0.00000000      -0.21237243      -0.79276888       0.27097648
O        0.00000000       0.00000000       0.00000000       0.76450150       0.84354471      -0.35203073
H        0.00000000       0.00000000       0.00000000      -0.17157083       0.13390568       0.36067880
H        0.00000000       0.00000000       0.00000000      -0.73403063       0.11100115       0.53593001
H        0.00000000       0.00000000       0.00000000      -0.25633597      -0.11411410       0.19464582
7
Lattice="529.1772105638412 0.0 0.0 0.0 529.1772105638412 0.0 0.0 0.0 529.1772105638412" Properties=species:S:1:pos:R:3:forces_component_raw:R:3 ipi_comment="Step:         420  Bead:       0 forces_component_raw{ase}  cell{ase}" pbc="T T T"
O        0.00000000       0.00000000       0.00000000       0.56095508      -1.08934674       0.71284889
H        0.00000000       0.00000000       0.00000000      -0.42768157       0.36679412      -0.52173046
H        0.00000000       0.00000000       0.00000000       0.14323501       0.23433321      -0.36147036
O        0.00000000       0.00000000       0.00000000       0.30207026       1.46346065       0.14221888
H        0.00000000       0.00000000       0.00000000      -0.17928769      -0.04725500       0.01039659
H        0.00000000       0.00000000       0.00000000      -0.04603974      -0.04047317       0.00506227
H        0.00000000       0.00000000       0.00000000      -0.35325134      -0.88751308       0.01267419
7
Lattice="529.1772105638412 0.0 0.0 0.0 529.1772105638412 0.0 0.0 0.0 529.1772105638412" Properties=species:S:1:pos:R:3:forces_component_raw:R:3 ipi_comment="Step:         440  Bead:       0 forces_component_raw{ase}  cell{ase}" pbc="T T T"
O        0.00000000       0.00000000       0.00000000      -0.90017995      -1.29124505       0.04550127
H        0.00000000       0.00000000       0.00000000      -0.10262110       0.49976679       0.01904385
H        0.00000000       0.00000000       0.00000000       0.87606424       1.17280044       0.21534519
O        0.00000000       0.00000000       0.00000000      -0.12644517       1.33304280       0.00896537
H        0.00000000       0.00000000       0.00000000       0.25041612      -0.01783105       0.13207388
H        0.00000000       0.00000000       0.00000000       1.19799940       0.24878271      -0.73325486
H        0.00000000       0.00000000       0.00000000      -1.19523355      -1.94531665       0.31232529
7
Lattice="529.1772105638412 0.0 0.0 0.0 529.1772105638412 0.0 0.0 0.0 529.1772105638412" Properties=species:S:1:pos:R:3:forces_component_raw:R:3 ipi_comment="Step:         460  Bead:       0 forces_component_raw{ase}  cell{ase}" pbc="T T T"
O        0.00000000       0.00000000       0.00000000      -1.02284584      -0.24698392       0.89798066
H        0.00000000       0.00000000       0.00000000      -0.36548338      -0.20931599      -0.02858085
H        0.00000000       0.00000000       0.00000000       1.21078631       1.49348766      -0.22012483
O        0.00000000       0.00000000       0.00000000      -1.88097240       1.09644818       1.09347991
H        0.00000000       0.00000000       0.00000000       0.09771531      -0.58130040      -0.31962703
H        0.00000000       0.00000000       0.00000000       2.46282720      -0.18156730      -1.35080994
H        0.00000000       0.00000000       0.00000000      -0.50202719      -1.37076823      -0.07231792
7
Lattice="529.1772105638412 0.0 0.0 0.0 529.1772105638412 0.0 0.0 0.0 529.1772105638412" Properties=species:S:1:pos:R:3:forces_component_raw:R:3 ipi_comment="Step:         480  Bead:       0 forces_component_raw{ase}  cell{ase}" pbc="T T T"
O        0.00000000       0.00000000       0.00000000       0.22974242      -0.48035010      -0.72103093
H        0.00000000       0.00000000       0.00000000      -0.24850891      -0.08876591       0.74931835
H        0.00000000       0.00000000       0.00000000       0.07876235       0.11645015       0.05117543
O        0.00000000       0.00000000       0.00000000      -2.38095950      -0.09329377       1.29188296
H        0.00000000       0.00000000       0.00000000      -0.08596986       0.54604869      -0.27796502
H        0.00000000       0.00000000       0.00000000       2.85379366       0.38211644      -1.30908461
H        0.00000000       0.00000000       0.00000000      -0.44686016      -0.38220549       0.21570383
7
Lattice="529.1772105638412 0.0 0.0 0.0 529.1772105638412 0.0 0.0 0.0 529.1772105638412" Properties=species:S:1:pos:R:3:forces_component_raw:R:3 ipi_comment="Step:         500  Bead:       0 forces_component_raw{ase}  cell{ase}" pbc="T T T"
O        0.00000000       0.00000000       0.00000000       1.48237806       0.52511814      -2.02447384
H        0.00000000       0.00000000       0.00000000      -1.15980734      -0.29457713       1.70881047
H        0.00000000       0.00000000       0.00000000      -0.31864335      -0.75048349      -0.09082322
O        0.00000000       0.00000000       0.00000000      -1.78108472       0.74652032       1.23841965
H        0.00000000       0.00000000       0.00000000       0.22259283      -0.15143672      -0.10896915
H        0.00000000       0.00000000       0.00000000       1.41938000      -0.17780622      -0.75598065
H        0.00000000       0.00000000       0.00000000       0.13518453       0.10266511       0.03301674
7
Lattice="529.1772105638412 0.0 0.0 0.0 529.1772105638412 0.0 0.0 0.0 529.1772105638412" Properties=species:S:1:pos:R:3:forces_component_raw:R:3 ipi_comment="Step:         520  Bead:       0 forces_component_raw{ase}  cell{ase}" pbc="T T T"
O        0.00000000       0.00000000       0.00000000       1.47439828       0.23554078      -1.66215560
H        0.00000000       0.00000000       0.00000000      -1.18282107       0.04835903       1.17700946
H        0.00000000       0.00000000       0.00000000      -0.27053128      -0.51675179       0.15500835
O        0.00000000       0.00000000       0.00000000       0.63764676      -0.33372813      -0.72274782
H        0.00000000       0.00000000       0.00000000       0.07681021       0.31885478       0.50655736
H        0.00000000       0.00000000       0.00000000      -0.86115085       0.11606947       0.53475659
H        0.00000000       0.00000000       0.00000000       0.12564796       0.13165587       0.01157166
7
Lattice="529.1772105638412 0.0 0.0 0.0 529.1772105638412 0.0 0.0 0.0 529.1772105638412" Properties=species:S:1:pos:R:3:forces_component_raw:R:3 ipi_comment="Step:         540  Bead:       0 forces_component_raw{ase}  cell{ase}" pbc="T T T"
O        0.00000000       0.00000000       0.00000000      -0.35357794      -0.07857167       0.23189080
H        0.00000000       0.00000000       0.00000000       0.30128674      -0.46133459      -0.16571791
H        0.00000000       0.00000000       0.00000000       0.48673265       0.21299394      -0.31136055
O        0.00000000       0.00000000       0.00000000       1.18884642      -0.58893504      -0.46568081
H        0.00000000       0.00000000       0.00000000      -0.45110970      -0.08202300      -0.31651936
H        0.00000000       0.00000000       0.00000000      -1.24542137       0.85817084       1.05966260
H        0.00000000       0.00000000       0.00000000       0.07324319       0.13969950      -0.03227477
7
Lattice="529.1772105638412 0.0 0.0 0.0 529.1772105638412 0.0 0.0 0.0 529.1772105638412" Properties=species:S:1:pos:R:3:forces_component_raw:R:3 ipi_comment="Step:         560  Bead:       0 forces_component_raw{ase}  cell{ase}" pbc="T T T"
O        0.00000000       0.00000000       0.00000000      -1.45093736      -2.57686522       0.64168450
H        0.00000000       0.00000000       0.00000000       1.48853297       0.79455909      -0.33051436
H        0.00000000       0.00000000       0.00000000      -0.07535111       1.69367325      -0.40412183
O        0.00000000       0.00000000       0.00000000       2.21893913      -0.35187355      -0.50553041
H        0.00000000       0.00000000       0.00000000       0.19797358       0.13302932      -0.14004991
H        0.00000000       0.00000000       0.00000000      -2.15823975       0.99509810       0.88083248
H        0.00000000       0.00000000       0.00000000      -0.22091745      -0.68762100      -0.14230047
7
Lattice="529.1772105638412 0.0 0.0 0.0 529.1772105638412 0.0 0.0 0.0 529.1772105638412" Properties=species:S:1:pos:R:3:forces_component_raw:R:3 ipi_comment="Step:         580  Bead:       0 forces_component_raw{ase}  cell{ase}" pbc="T T T"
O        0.00000000       0.00000000       0.00000000      -3.06442240      -0.01993840       0.94204783
H        0.00000000       0.00000000       0.00000000       2.04639325      -0.44586757       0.01898489
H        0.00000000       0.00000000       0.00000000       0.76720178       1.13831835      -0.49317146
O        0.00000000       0.00000000       0.00000000       3.14956466      -1.33773194      -0.53687010
H        0.00000000       0.00000000       0.00000000      -0.14619028      -0.24578465       0.14687855
H        0.00000000       0.00000000       0.00000000      -2.27911055       0.85667798      -0.16049275
H        0.00000000       0.00000000       0.00000000      -0.47343646       0.05432623       0.08262304
7
Lattice="529.1772105638412 0.0 0.0 0.0 529.1772105638412 0.0 0.0 0.0 529.1772105638412" Properties=species:S:1:pos:R:3:forces_component_raw:R:3 ipi_comment="Step:         600  Bead:       0 forces_component_raw{ase}  cell{ase}" pbc="T T T"
O        0.00000000       0.00000000       0.00000000      -1.56031034      -0.34832305       0.76684398
H        0.00000000       0.00000000       0.00000000       1.43464175       0.57063812      -0.68435295
H        0.00000000       0.00000000       0.00000000      -0.45696590      -0.26585837       0.19308322
O        0.00000000       0.00000000       0.00000000       2.24470702       0.21352826       0.45393512