7
# CELL(abcABC):  529.17722   529.17722   529.17722    90.00000    90.00000    90.00000  Step:           0  Bead:       0 forces{eV/ang}  cell{angstrom}
       O -1.23638e+00 -1.33547e+00 -1.10668e+00
       H  2.01290e+00  1.67785e+00  1.48275e+00
       H -7.08043e-01  5.40672e-01  3.55555e-01
       O -1.34041e-02 -2.48245e-01  8.22352e-02
       H -1.27358e-01 -5.10651e-01 -5.29414e-01
       H  4.60676e-01  7.78837e-02 -1.70500e-01
       H -3.88386e-01 -2.02042e-01 -1.13941e-01
7
# CELL(abcABC):  529.17722   529.17722   529.17722    90.00000    90.00000    90.00000  Step:          20  Bead:       0 forces{eV/ang}  cell{angstrom}
       O  6.59333e-01 -1.06532e+00 -1.72113e+00
       H  9.90236e-01  4.19206e-01  5.28293e-01
       H -1.80086e+00  4.27909e-01  8.15961e-01
       O -6.63767e-01  3.23121e-01  7.23775e-01
       H  6.35553e-01  8.31169e-02  2.60892e-01
       H  7.30954e-01  2.56619e-01 -3.66151e-01
       H -5.51449e-01 -4.44648e-01 -2.41638e-01
7
# CELL(abcABC):  529.17722   529.17722   529.17722    90.00000    90.00000    90.00000  Step:          40  Bead:       0 forces{eV/ang}  cell{angstrom}
       O  1.05761e+00 -7.51662e-02 -1.34768e-01
       H -1.07852e-01 -8.79196e-02 -2.49334e-01
       H -6.21039e-01 -1.27177e-01  1.57403e-01
       O -4.64500e-02  3.90379e-01  5.11560e-01
       H -6.41437e-01  1.41770e-01  1.83693e-01
       H  1.65342e-01 -3.03182e-01 -3.78626e-01
       H  1.93822e-01  6.12955e-02 -8.99273e-02
7
# CELL(abcABC):  529.17722   529.17722   529.17722    90.00000    90.00000    90.00000  Step:          60  Bead:       0 forces{eV/ang}  cell{angstrom}
       O  5.70845e-02  7.27620e-01  1.68908e+00
       H -1.16438e+00 -8.09437e-01 -1.27815e+00
       H  5.52312e-01  4.54581e-01 -3.22890e-02
       O -1.30758e+00 -1.08032e+00  4.39513e-01
       H  6.24024e-01 -4.24305e-01 -5.29632e-01
       H  7.05596e-01  1.38476e-01 -4.53999e-01
       H  5.32946e-01  9.93385e-01  1.65479e-01
7
# CELL(abcABC):  529.17722   529.17722   529.17722    90.00000    90.00000    90.00000  Step:          80  Bead:       0 forces{eV/ang}  cell{angstrom}
       O  6.10294e-01 -1.11695e-01  2.00515e+00
       H -1.50702e+00 -6.41426e-01 -1.90610e+00
       H  1.20788e+00  4.59847e-01 -6.39344e-01
       O -3.85488e-01 -1.01679e+00 -5.92677e-02
       H -4.64778e-01 -1.27728e-01  5.72646e-01
       H -8.52588e-02  8.33023e-02  9.28041e-02
       H  6.24379e-01  1.35449e+00 -6.58858e-02
7
# CELL(abcABC):  529.17722   529.17722   529.17722    90.00000    90.00000    90.00000  Step:         100  Bead:       0 forces{eV/ang}  cell{angstrom}
       O  6.98597e-01 -2.98088e-01  2.63684e+00
       H -1.94030e+00 -1.25638e-01 -1.84602e+00
       H  1.30287e+00  4.79835e-01 -5.97380e-01
       O -4.00056e-01 -1.70631e+00 -4.32847e-02
       H -1.28762e-01  5.31377e-01  1.63723e-01
       H -7.14000e-01 -4.10795e-01  5.85009e-01
       H  1.18166e+00  1.52962e+00 -8.98888e-01
7
# CELL(abcABC):  529.17722   529.17722   529.17722    90.00000    90.00000    90.00000  Step:         120  Bead:       0 forces{eV/ang}  cell{angstrom}
       O  4.35902e-01  7.28304e-01  2.33944e+00
       H -1.97249e+00 -3.18527e-02 -1.49457e+00
       H  1.39712e+00 -6.05710e-02 -4.59940e-01
       O  1.71277e+00 -2.59081e+00 -1.22851e+00
       H  1.55238e-01 -5.24867e-01 -1.01620e-01
       H -1.27860e+00  6.35917e-01  7.12032e-01
       H -4.49946e-01  1.84388e+00  2.33171e-01
7
# CELL(abcABC):  529.17722   529.17722   529.17722    90.00000    90.00000    90.00000  Step:         140  Bead:       0 forces{eV/ang}  cell{angstrom}
       O -6.85037e-01 -2.10685e-01  1.02602e+00
       H -8.48888e-01  5.79920e-03 -7.98962e-01
       H  1.59800e+00 -3.65443e-01 -4.83424e-01
       O -4.51036e-01  1.14406e+00  3.98767e-01
       H  1.44204e-01  4.58423e-02 -9.58375e-03
       H -4.06004e-01 -1.14769e+00  1.26267e-01
       H  6.48758e-01  5.28111e-01 -2.59079e-01
7
# CELL(abcABC):  529.17722   529.17722   529.17722    90.00000    90.00000    90.00000  Step:         160  Bead:       0 forces{eV/ang}  cell{angstrom}
       O -9.89183e-01 -1.51220e-01 -2.55818e-02
       H  1.91405e-01  1.04300e-01  3.11682e-01
       H  9.76128e-01 -5.26469e-01 -3.18260e-01
       O  7.21918e-01 -1.67448e-01 -8.17222e-01
       H -1.90735e-01  5.72144e-01  2.87271e-01
       H -8.76200e-02  5.91416e-01 -8.55346e-02
       H -6.21913e-01 -4.22724e-01  6.47644e-01
7
# CELL(abcABC):  529.17722   529.17722   529.17722    90.00000    90.00000    90.00000  Step:         180  Bead:       0 forces{eV/ang}  cell{angstrom}
       O -6.60035e-01 -4.01059e-01 -2.03018e+00
       H  3.53128e-01  9.23607e-02  1.63993e+00
       H  2.13184e-01 -1.39124e-01  1.07269e-01
       O -2.46092e+00  1.05905e+00  1.18806e+00
       H  3.05544e-01 -6.87408e-02 -1.43016e-01
       H  1.65132e+00 -2.26403e-02 -7.61268e-01
       H  5.97781e-01 -5.19852e-01 -7.99880e-04
7
# CELL(abcABC):  529.17722   529.17722   529.17722    90.00000    90.00000    90.00000  Step:         200  Bead:       0 forces{eV/ang}  cell{angstrom}
       O  5.83316e-02  4.25761e-01 -2.42339e+00
       H -1.02084e-01  4.97116e-02  2.50580e+00
       H -1.73269e-01  1.78330e-01  7.71619e-02
       O -6.68609e-01 -1.43451e-01  3.67050e-02
       H -1.76851e-01 -1.07221e-01  2.95332e-01
       H  1.43505e+00  7.41534e-01 -1.35794e+00
       H -3.72565e-01 -1.14466e+00  8.66334e-01
7
# CELL(abcABC):  529.17722   529.17722   529.17722    90.00000    90.00000    90.00000  Step:         220  Bead:       0 forces{eV/ang}  cell{angstrom}
       O  1.24449e+00  3.66192e-01 -1.01707e+00
       H -6.85995e-01 -3.83746e-01  2.24113e+00
       H -7.16161e-01  8.57649e-01 -7.13702e-01
       O -1.26322e+00  9.87142e-01 -5.54459e-02
       H -2.84018e-01  1.04069e-01 -2.21137e-01
       H  1.19664e+00 -2.38021e-01 -7.36311e-01
       H  5.08263e-01 -1.69329e+00  5.02535e-01
7
# CELL(abcABC):  529.17722   529.17722   529.17722    90.00000    90.00000    90.00000  Step:         240  Bead:       0 forces{eV/ang}  cell{angstrom}
       O  1.76263e+00 -6.65370e-01 -1.86003e-01
       H -9.69816e-01 -2.53996e-01  1.22920e+00
       H -9.42826e-01  1.15169e+00 -8.23935e-01
       O -2.54313e-01  8.80527e-01 -5.35813e-01
       H  6.81082e-02 -1.06322e-02 -7.93385e-02
       H  4.69085e-01  4.65116e-01 -6.00795e-01
       H -1.32870e-01 -1.56734e+00  9.96679e-01
7
# CELL(abcABC):  529.17722   529.17722   529.17722    90.00000    90.00000    90.00000  Step:         260  Bead:       0 forces{eV/ang}  cell{angstrom}
       O  4.89062e-01 -1.57739e+00  6.60721e-01
       H  7.44878e-02 -2.45693e-01  5.21082e-01
       H -4.83916e-01  1.42884e+00 -1.33858e+00
       O -1.86836e-01  2.35020e+00 -3.55674e-01
       H  1.87079e-02 -1.93913e-01 -7.28660e-02
       H -1.43409e-01 -4.81647e-01  3.24065e-01
       H  2.31904e-01 -1.28039e+00  2.61249e-01
7
# CELL(abcABC):  529.17722   529.17722   529.17722    90.00000    90.00000    90.00000  Step:         280  Bead:       0 forces{eV/ang}  cell{angstrom}
       O  2.66917e-01 -2.15870e+00  5.19353e-01
       H  6.58919e-01  5.33465e-01 -8.13742e-01
       H -4.46918e-01  5.73585e-01 -3.57506e-01
       O  1.87090e-01 -2.94569e-01 -7.29477e-02
       H -2.33202e-01  2.84532e-01  2.54343e-01
       H -1.99190e-01  3.76231e-01  2.32237e-01
       H -2.33617e-01  6.85457e-01  2.38262e-01
7
# CELL(abcABC):  529.17722   529.17722   529.17722    90.00000    90.00000    90.00000  Step:         300  Bead:       0 forces{eV/ang}  cell{angstrom}
       O -9.28374e-01  8.02717e-01  1.38938e+00
       H  9.29963e-01 -1.24876e-01 -1.14727e+00
       H -1.03896e-01  1.24951e-01 -1.26437e-02
       O -4.24305e-01 -1.04987e+00  7.94096e-01
       H  2.93964e-01 -1.05123e+00 -4.31296e-01
       H -1.22276e-02 -2.16643e-01  1.15163e-01
       H  2.44876e-01  1.51495e+00 -7.07432e-01
7
# CELL(abcABC):  529.17722   529.17722   529.17722    90.00000    90.00000    90.00000  Step:         320  Bead:       0 forces{eV/ang}  cell{angstrom}
       O -9.36502e-01  3.96949e-01  3.05586e-01
       H  1.02499e+00  9.93143e-02 -1.09114e+00
       H -6.69024e-02 -7.81932e-01  6.09357e-01
       O -1.00918e-01 -2.93067e+00  3.06499e-01
       H  1.55458e-01  6.75736e-01  3.71633e-01
       H  1.37395e-01  4.40039e-01  1.69516e-02
       H -2.13521e-01  2.10056e+00 -5.18889e-01
7
# CELL(abcABC):  529.17722   529.17722   529.17722    90.00000    90.00000    90.00000  Step:         340  Bead:       0 forces{eV/ang}  cell{angstrom}
       O  3.83982e-01  2.29773e+00 -4.26012e-01
       H -1.65724e-01 -2.34833e-01  9.69822e-02
       H -1.15799e-01 -1.88621e+00  6.29979e-01
       O -2.98887e-01 -7.78897e-01  9.78736e-01
       H -4.36917e-01 -2.23552e-01 -4.23341e-01
       H  2.94239e-01 -6.06039e-01 -1.10994e-01
       H  3.39107e-01  1.43181e+00 -7.45350e-01
7
# CELL(abcABC):  529.17722   529.17722   529.17722    90.00000    90.00000    90.00000  Step:         360  Bead:       0 forces{eV/ang}  cell{angstrom}
       O  1.89435e+00  1.03064e+00 -9.56612e-01
       H -1.20164e+00  3.37649e-01  5.78593e-01
       H -8.67130e-01 -1.06474e+00  6.47158e-01
       O  9.52905e-01 -5.97796e-01 -8.06093e-02
       H  2.76731e-01 -1.36502e-01 -2.65982e-01
       H -6.34247e-01  1.99923e-01  7.96821e-02
       H -4.20976e-01  2.30832e-01 -2.23008e-03
7
# CELL(abcABC):  529.17722   529.17722   529.17722    90.00000    90.00000    90.00000  Step:         380  Bead:       0 forces{eV/ang}  cell{angstrom}
       O  1.54018e+00  6.30259e-01 -8.07030e-01
       H -1.49194e+00 -1.69204e-01  4.17736e-01
       H  3.14830e-02 -7.46641e-01  4.83587e-02
       O -2.11520e-01  1.03431e+00 -3.14719e-01
       H  2.57566e-01 -1.34860e-01  2.15969e-01
       H -3.80660e-01 -3.99393e-01  3.60858e-01
       H  2.54889e-01 -2.14473e-01  7.88270e-02
7
# CELL(abcABC):  529.17722   529.17722   529.17722    90.00000    90.00000    90.00000  Step:         400  Bead:       0 forces{eV/ang}  cell{angstrom}
       O  7.97465e-01 -2.23819e+00 -5.99679e-01
       H -7.55653e-01  4.35046e-01  6.16490e-02
       H  2.18094e-01  1.22224e+00 -4.24742e-02
       O -2.18759e-01  1.61428e+00 -1.43474e-01
       H -1.01474e-01  9.50580e-02  8.25711e-02
       H  1.35640e-01  1.24170e-01 -8.46629e-02
       H -7.53144e-02 -1.25261e+00  7.26070e-01
7
# CELL(abcABC):  529.17722   529.17722   529.17722    90.00000    90.00000    90.00000  Step:         420  Bead:       0 forces{eV/ang}  cell{angstrom}
       O -1.49827e+00 -2.79532e+00 -1.20172e+00
       H  4.16874e-01 -5.13993e-02  2.67567e-01
       H  1.19398e+00  2.18761e+00  2.41583e-01
       O -3.77072e-01  1.97531e+00  2.74993e-02
       H  3.53027e-02 -1.17374e-01  8.69802e-02
       H  6.21917e-01  2.60306e-01 -4.37514e-01
       H -3.92727e-01 -1.45912e+00  1.01560e+00
7
# CELL(abcABC):  529.17722   529.17722   529.17722    90.00000    90.00000    90.00000  Step:         440  Bead:       0 forces{eV/ang}  cell{angstrom}
       O -1.63957e+00 -1.22904e+00 -2.62427e-01
       H  5.97576e-01  1.26747e-01  2.11232e-01
       H  8.62618e-01  1.68777e+00  3.83121e-01
       O -5.94774e-01  2.02359e+00 -4.28891e-01
       H -2.82627e-02 -4.69789e-01 -2.15176e-01
       H  1.10131e+00 -1.36637e-01 -6.87157e-01
       H -2.98902e-01 -2.00263e+00  9.99298e-01
7
# CELL(abcABC):  529.17722   529.17722   529.17722    90.00000    90.00000    90.00000  Step:         460  Bead:       0 forces{eV/ang}  cell{angstrom}
       O -4.78144e-01  6.61227e-01  4.89310e-01
       H  2.60451e-01 -3.11355e-01 -4.31805e-02
       H  1.55707e-01  2.30630e-01  1.77411e-01
       O -1.04250e+00 -1.26044e+00 -3.57373e-01
       H -2.73444e-01  8.44877e-01  3.68275e-01
       H  1.72132e+00  4.38716e-01 -9.86894e-01
       H -3.43390e-01 -6.03657e-01  3.52452e-01
7
# CELL(abcABC):  529.17722   529.17722   529.17722    90.00000    90.00000    90.00000  Step:         480  Bead:       0 forces{eV/ang}  cell{angstrom}
       O  9.77076e-01  1.71241e+00  9.73576e-01
       H  8.80143e-02 -2.56191e-02 -5.62046e-02
       H -1.52610e+00 -9.73616e-01 -2.48479e-01
       O -1.59339e+00 -1.65842e-01  8.08559e-01
       H  5.57059e-01 -6.58998e-01 -4.54374e-01
       H  1.12790e+00 -2.89442e-01 -8.01911e-01
       H  3.69442e-01  4.01105e-01 -2.21166e-01
7
# CELL(abcABC):  529.17722   529.17722   529.17722    90.00000    90.00000    90.00000  Step:         500  Bead:       0 forces{eV/ang}  cell{angstrom}
       O  3.36961e+00 -3.03257e-01 -7.25031e-02
       H -8.27075e-01  5.82673e-01 -2.86054e-01
       H -2.30906e+00 -1.26590e+00 -3.29875e-01
       O  1.79138e-01 -3.29429e-01 -2.80818e-01
       H  6.66101e-02  2.27046e-01  2.85907e-01
       H -2.03994e-01  2.06494e-01  1.73669e-01
       H -2.75232e-01  8.82371e-01  5.09675e-01
7
# CELL(abcABC):  529.17722   529.17722   529.17722    90.00000    90.00000    90.00000  Step:         520  Bead:       0 forces{eV/ang}  cell{angstrom}
       O  2.50280e+00  5.04029e-02  3.61356e-01
       H -2.77182e-02  1.27444e-01 -1.66288e-01
       H -2.12995e+00 -1.17661e+00 -7.02853e-01
       O  2.46860e-01  6.86630e-01  2.47860e-01
       H -3.63788e-02  3.71799e-01 -3.29473e-01
       H -1.38995e+00 -7.60788e-01  1.00733e+00
       H  8.34340e-01  7.01125e-01 -4.17928e-01
7
# CELL(abcABC):  529.17722   529.17722   529.17722    90.00000    90.00000    90.00000  Step:         540  Bead:       0 forces{eV/ang}  cell{angstrom}
       O  5.65498e-01  1.58003e+00 -2.32529e-01
       H  2.74858e-01 -4.74115e-01  3.58462e-01
       H -7.65008e-01 -1.16420e+00 -6.34893e-01
       O  8.19238e-01 -1.84921e+00 -2.09674e+00
       H -1.05602e-01 -2.28976e-01  3.66218e-01
       H -8.94337e-01  1.21621e+00  1.72248e+00
       H  1.05353e-01  9.20272e-01  5.17002e-01
7
# CELL(abcABC):  529.17722   529.17722   529.17722    90.00000    90.00000    90.00000  Step:         560  Bead:       0 forces{eV/ang}  cell{angstrom}
       O -8.41957e-01  5.14189e-01 -7.46992e-01
       H  6.63682e-01 -5.25569e-01  6.79461e-01
       H  3.58050e-01  3.89336e-01  3.68898e-01
       O  1.56658e+00  4.84222e-01 -1.07455e+00
       H -2.12566e-01 -1.00355e-01 -4.14291e-01
       H -1.71654e+00  1.20165e-01  1.76936e+00
       H  1.82755e-01 -8.81987e-01 -5.81882e-01
7
# CELL(abcABC):  529.17722   529.17722   529.17722    90.00000    90.00000    90.00000  Step:         580  Bead:       0 forces{eV/ang}  cell{angstrom}
       O -2.16363e+00  1.28564e+00 -1.78050e+00
       H  7.89713e-01 -1.31936e+00  8.84762e-01
       H  1.21674e+00  7.04267e-01  1.60034e+00
       O  1.28254e+00 -2.14169e+00 -1.87918e+00
       H  3.01474e-02  3.59658e-01  2.95978e-01
       H -2.99421e-01  1.16237e+00  4.49969e-01
       H -8.56096e-01 -5.08772e-02  4.28621e-01
7
# CELL(abcABC):  529.17722   529.17722   529.17722    90.00000    90.00000    90.00000  Step:         600  Bead:       0 forces{eV/ang}  cell{angstrom}
       O -1.84870e+00  7.30273e-01 -2.70870e+00
       H  4.54842e-01 -7.97238e-01  8.39860e-01
       H  1.23338e+00  5.35346e-01  2.10886e+00
       O  8.61136e-01  1.36382e+00  3.51585e-01
       H -4.78258e-01 -3.54378e-01 -1.71321e-01
       H -3.88416e-01 -8.67389e-01 -4.92357e-01
       H  1.66018e-01 -6.10432e-01  7.20765e-02
7
# CELL(abcABC):  529.17722   529.17722   529.17722    90.00000    90.00000    90.00000  Step:         620  Bead:       0 forces{eV/ang}  cell{angstrom}
       O -1.03419e+00 -2.11339e-01 -1.71693e+00
       H  3.23616e-02 -4.27279e-01  1.20982e-01
       H  6.88401e-01  4.24246e-02  1.33849e+00
       O -8.00835e-01 -4.10709e-01  3.68063e-01
       H  1.08631e+00  3.42063e-01 -1.73821e-01
       H  7.86506e-01  6.65684e-01  8.32397e-02
       H -7.58557e-01 -8.43673e-04 -2.00290e-02
7
# CELL(abcABC):  529.17722   529.17722   529.17722    90.00000    90.00000    90.00000  Step:         640  Bead:       0 forces{eV/ang}  cell{angstrom}
       O  2.12295e-01 -1.42130e+00 -2.62310e-02
       H -2.21438e-01  8.91084e-01 -6.50553e-01
       H -2.26283e-02 -3.06836e-01  1.98729e-01
       O -1.84238e+00  1.88446e+00  8.50882e-01
       H -2.00122e-02 -4.14053e-01 -3.43073e-01
       H  1.35032e+00 -9.28540e-01 -2.62765e-01
       H  5.43842e-01  2.95192e-01  2.33012e-01
7
# CELL(abcABC):  529.17722   529.17722   529.17722    90.00000    90.00000    90.00000  Step:         660  Bead:       0 forces{eV/ang}  cell{angstrom}
       O  4.01553e-01 -3.01815e+00  4.68065e-01
       H  4.07048e-02  1.77531e+00 -8.42764e-02
       H -3.86645e-01  6.89843e-01 -8.06456e-01
       O -2.09138e+00 -6.59096e-01  2.24791e-01
       H  3.72628e-01  5.21964e-01  4.98541e-01
       H  1.83547e+00  1.27962e-01 -2.27609e-01
       H -1.72331e-01  5.62167e-01 -7.30561e-02
7
# CELL(abcABC):  529.17722   529.17722   529.17722    90.00000    90.00000    90.00000  Step:         680  Bead:       0 forces{eV/ang}  cell{angstrom}
       O  6.22579e-01 -7.17205e-01  2.14227e+00
       H -7.16025e-02  1.22140e+00 -1.06557e+00
       H -9.57649e-02 -7.33372e-01 -1.23156e+00
       O -1.06845e+00  2.07946e+00  1.42116e+00
       H -8.17580e-01 -1.56915e-01 -3.91735e-01
       H  1.35780e+00 -1.07269e+00 -6.66496e-01
       H  7.30184e-02 -6.20676e-01 -2.08073e-01
7
# CELL(abcABC):  529.17722   529.17722   529.17722    90.00000    90.00000    90.00000  Step:         700  Bead:       0 forces{eV/ang}  cell{angstrom}
       O -1.12230e-01 -1.61301e-01  2.15992e+00
       H -8.64836e-02  1.40729e+00 -4.17452e-02
       H -8.87571e-02  7.81077e-02 -1.65244e+00
       O  6.73711e-01 -1.35784e+00 -1.38395e+00
       H  4.79526e-01 -2.16198e-01  1.76039e-01
       H  2.14076e-01  9.31673e-01  3.47616e-01
       H -1.07984e+00 -6.81723e-01  3.94562e-01
7
# CELL(abcABC):  529.17722   529.17722   529.17722    90.00000    90.00000    90.00000  Step:         720  Bead:       0 forces{eV/ang}  cell{angstrom}
       O -6.34448e-02  1.50106e+00  6.99062e-01
       H  1.11431e-01 -7.42407e-01 -4.48332e-02
       H  9.16666e-02 -3.97853e-01 -5.24887e-03
       O  2.26516e+00  7.77843e-01 -5.05815e-01
       H -5.28470e-01  8.58128e-02 -6.23829e-01
       H -1.29026e+00 -1.11829e-01  6.91607e-01
       H -5.86088e-01 -1.11263e+00 -2.10942e-01
7
# CELL(abcABC):  529.17722   529.17722   529.17722    90.00000    90.00000    90.00000  Step:         740  Bead:       0 forces{eV/ang}  cell{angstrom}
       O -1.42990e+00  2.80371e-01 -2.91912e+00
       H  4.51348e-01 -8.27125e-01  1.35346e+00
       H  7.45469e-01  3.82480e-01  8.32548e-01
       O  9.30223e-01 -1.02785e+00 -1.12519e+00
       H  2.50009e-01 -1.14994e-02  7.21550e-01
       H -7.68386e-01  6.32406e-01  7.42999e-01
       H -1.78766e-01  5.71217e-01  3.93744e-01
7
# CELL(abcABC):  529.17722   529.17722   529.17722    90.00000    90.00000    90.00000  Step:         760  Bead:       0 forces{eV/ang}  cell{angstrom}
       O -1.30224e+00  5.59782e-01 -1.30714e+00
       H  2.47909e-01 -1.75129e+00  2.99464e-01
       H  1.28164e+00  3.40176e-01  1.25005e+00
       O  2.09741e-01  3.22752e-01 -3.69494e-02
       H -1.34955e-01  1.69594e-01 -7.63804e-01
       H -1.09821e+00 -2.63908e-01  1.56503e-01
       H  7.96121e-01  6.22898e-01  4.01877e-01
7
# CELL(abcABC):  529.17722   529.17722   529.17722    90.00000    90.00000    90.00000  Step:         780  Bead:       0 forces{eV/ang}  cell{angstrom}
       O -1.19737e+00  2.63183e-01 -1.93007e+00
       H  1.38326e-02 -5.69648e-01  5.17535e-01
       H  1.02053e+00  7.50734e-02  6.58267e-01
       O -5.96086e-01 -7.33845e-02 -1.86756e+00
       H  4.35701e-01 -4.49294e-01  8.08519e-01
       H -6.24138e-01  9.66443e-02  5.00786e-01
       H  9.47534e-01  6.57426e-01  1.31251e+00
7
# CELL(abcABC):  529.17722   529.17722   529.17722    90.00000    90.00000    90.00000  Step:         800  Bead:       0 forces{eV/ang}  cell{angstrom}
       O  3.60820e-01 -1.91419e-01  1.93979e-01
       H  1.77155e-01 -1.35067e-01  8.83966e-02
       H -2.15760e-01  2.93511e-01  3.22067e-02
       O -1.37629e+00 -5.50853e-01 -1.12672e+00
       H -4.32342e-01  4.32605e-02 -4.77736e-01
       H -8.65630e-03 -4.52531e-02 -8.56802e-02
       H  1.49507e+00  5.85821e-01  1.37555e+00
7
# CELL(abcABC):  529.17722   529.17722   529.17722    90.00000    90.00000    90.00000  Step:         820  Bead:       0 forces{eV/ang}  cell{angstrom}
       O  5.30196e-01  8.35901e-01  1.61250e+00
       H -4.93760e-01  8.26202e-01 -8.34279e-01
       H -3.87244e-01 -8.95467e-01 -5.71489e-01
       O -2.40418e+00 -7.50506e-01 -9.73829e-01
       H  4.12653e-01  3.45992e-01  2.02787e-01
       H  1.11499e+00 -5.17300e-01 -2.90722e-01
       H  1.22735e+00  1.55178e-01  8.55028e-01
7
# CELL(abcABC):  529.17722   529.17722   529.17722    90.00000    90.00000    90.00000  Step:         840  Bead:       0 forces{eV/ang}  cell{angstrom}
       O  1.11035e+00 -2.02450e-01  2.59225e+00
       H -7.42428e-01  1.39932e+00 -1.64093e+00
       H -2.04579e-01 -7.89787e-01 -8.67735e-01
       O  3.73758e-01 -5.08176e-01 -5.95460e-02
       H -7.81799e-01 -2.91420e-02 -1.73610e-01
       H  3.55720e-01 -1.34699e-01  3.82796e-02
       H -1.11021e-01  2.64932e-01  1.11289e-01
7
# CELL(abcABC):  529.17722   529.17722   529.17722    90.00000    90.00000    90.00000  Step:         860  Bead:       0 forces{eV/ang}  cell{angstrom}
       O  4.04025e-01 -7.06338e-01  1.35609e+00
       H -2.89802e-01  9.12779e-01 -5.70672e-01
       H -2.04239e-01 -4.16442e-01 -9.20964e-01
       O  1.25822e+00  2.21692e-01  7.16023e-01
       H  5.24897e-01  8.69392e-02  5.29562e-02
       H -1.10322e+00  6.81585e-01  7.98724e-02
       H -5.89889e-01 -7.80216e-01 -7.13303e-01
7
# CELL(abcABC):  529.17722   529.17722   529.17722    90.00000    90.00000    90.00000  Step:         880  Bead:       0 forces{eV/ang}  cell{angstrom}
       O  1.13353e-02  2.37400e-01  1.48107e-01
       H  1.49782e-01 -6.80481e-01 -3.21572e-01
       H  6.54383e-02 -2.31554e-01  2.07806e-01
       O  2.54019e+00  3.56477e-01  3.82363e-01
       H -1.68348e-01 -1.01889e-01 -3.37659e-01
       H -1.51731e+00  7.85840e-01  6.09730e-01
       H -1.08109e+00 -3.65793e-01 -6.88776e-01
7
# CELL(abcABC):  529.17722   529.17722   529.17722    90.00000    90.00000    90.00000  Step:         900  Bead:       0 forces{eV/ang}  cell{angstrom}
       O -2.08511e-01  5.30095e-01 -2.74223e+00
       H  1.77861e-01 -1.62497e+00  7.88039e-01
       H  1.38176e-01  4.56112e-01  1.69964e+00
       O  1.91724e+00  1.19580e+00 -1.26959e+00
       H  3.04497e-02 -1.40020e-01  7.05874e-01
       H -1.73414e+00 -8.28325e-02  9.52246e-01
       H -3.21074e-01 -3.34181e-01 -1.33974e-01
7
# CELL(abcABC):  529.17722   529.17722   529.17722    90.00000    90.00000    90.00000  Step:         920  Bead:       0 forces{eV/ang}  cell{angstrom}
       O  1.04577e-01  2.12730e+00 -4.79256e-01
       H -2.41842e-01 -1.89934e+00 -1.12504e-01
       H -2.37616e-01 -8.47744e-02  1.09285e+00
       O  9.82942e-01 -5.27892e-01 -9.47641e-01
       H  4.34290e-01  1.76776e-01 -4.93749e-01
       H -1.37009e+00 -1.03741e-01  6.15684e-01
       H  3.27736e-01  3.11672e-01  3.24613e-01
7
# CELL(abcABC):  529.17722   529.17722   529.17722    90.00000    90.00000    90.00000  Step:         940  Bead:       0 forces{eV/ang}  cell{angstrom}
       O  1.72518e-01  1.41978e+00 -5.63823e-01
       H -6.04983e-01 -1.78067e-01  8.28278e-01
       H  2.96610e-01  1.25991e-01 -2.02953e-01
       O  5.78550e-01 -9.00621e-01 -1.07480e+00
       H -4.18134e-01 -7.12727e-01  2.04164e-01
       H -5.83370e-01 -4.21587e-01  1.27004e-01
       H  5.58809e-01  6.67231e-01  6.82127e-01
7
# CELL(abcABC):  529.17722   529.17722   529.17722    90.00000    90.00000    90.00000  Step:         960  Bead:       0 forces{eV/ang}  cell{angstrom}
       O -1.70600e+00  2.83279e-01  1.53447e+00
       H  1.06396e+00  8.69373e-01 -6.53656e-01
       H  2.42723e-01 -6.79620e-01 -6.48657e-01
       O -1.99737e+00 -8.13796e-01 -7.63046e-01
       H  8.34343e-01  2.95702e-01 -9.00341e-02
       H  9.56367e-01 -1.26915e-01 -5.47070e-04
       H  6.05974e-01  1.71978e-01  6.21474e-01
7
# CELL(abcABC):  529.17722   529.17722   529.17722    90.00000    90.00000    90.00000  Step:         980  Bead:       0 forces{eV/ang}  cell{angstrom}
       O -1.58239e+00 -8.91053e-01  1.25095e+00
       H  1.24589e+00  1.39669e+00 -1.68269e-01
       H  7.88776e-01 -6.65715e-01 -1.05876e+00
       O -1.45788e+00  6.56806e-01 -1.75843e-03
       H -8.06826e-01  3.98074e-01 -3.92130e-01
       H  1.54132e+00 -1.09273e+00  3.36508e-02
       H  2.71104e-01  1.97923e-01  3.36317e-01
7
# CELL(abcABC):  529.17722   529.17722   529.17722    90.00000    90.00000    90.00000  Step:        1000  Bead:       0 forces{eV/ang}  cell{angstrom}
       O -1.88638e+00 -1.30681e+00  8.03210e-01
       H  1.23639e+00  7.44626e-01 -5.29151e-02
       H  6.27536e-01 -3.43157e-01 -1.13549e+00
       O -8.30278e-01  1.47049e+00  1.96776e-01
       H  5.58858e-01  2.32097e-01  3.45167e-01
       H  6.59026e-01 -4.96495e-01  5.19450e-01
       H -3.65159e-01 -3.00747e-01 -6.76195e-01
7
# CELL(abcABC):  529.17722   529.17722   529.17722    90.00000    90.00000    90.00000  Step:        1020  Bead:       0 forces{eV/ang}  cell{angstrom}
       O  4.78357e-01  2.13108e-01 -4.88520e-01
       H -1.71124e-01  2.09475e-01  2.91680e-01
       H -1.31259e-01  1.13591e-01  4.26931e-01
       O  4.48992e-01  2.31329e-01  1.00315e+00
       H -2.94846e-01 -8.62650e-01 -4.46750e-01
       H -9.15625e-02  2.13903e-01 -1.38970e-01
       H -2.38557e-01 -1.18756e-01 -6.47520e-01
7
# CELL(abcABC):  529.17722   529.17722   529.17722    90.00000    90.00000    90.00000  Step:        1040  Bead:       0 forces{eV/ang}  cell{angstrom}
       O  1.53954e+00  2.80635e-01 -7.70381e-01
       H -5.17922e-02 -7.58527e-01 -8.49305e-01
       H -1.71260e+00 -3.64439e-01  1.17447e+00
       O  2.54233e-01 -1.33561e-04  1.36260e+00
       H  2.76974e-01  3.10561e-02  3.69328e-02
       H -2.86269e-01  6.96691e-01 -1.10101e+00
       H -2.00896e-02  1.14717e-01  1.46690e-01
7
# CELL(abcABC):  529.17722   529.17722   529.17722    90.00000    90.00000    90.00000  Step:        1060  Bead:       0 forces{eV/ang}  cell{angstrom}
       O  2.78117e+00  4.71011e-01 -1.24699e+00
       H -7.88303e-01 -8.03340e-01 -6.46489e-01
       H -2.14450e+00  1.08753e-02  1.60296e+00
       O  2.26485e-01 -2.33628e+00  4.28229e-01
       H  1.87886e-02  4.62812e-01  3.11942e-01
       H -5.01848e-02  1.41835e+00 -1.31824e+00
       H -4.34556e-02  7.76573e-01  8.68593e-01
7
# CELL(abcABC):  529.17722   529.17722   529.17722    90.00000    90.00000    90.00000  Step:        1080  Bead:       0 forces{eV/ang}  cell{angstrom}
       O  1.64210e+00  1.20161e+00  2.54302e-01
       H -7.11365e-01 -2.19400e-01 -3.58790e-01
       H -6.50901e-01 -7.08739e-02  3.08792e-01
       O -7.28326e-02 -1.82359e+00  5.44896e-01
       H -5.18554e-01 -5.17734e-01 -1.65550e-02
       H  3.31676e-01  1.44092e+00 -1.40215e+00
       H -2.01244e-02 -1.09289e-02  6.69504e-01
7
# CELL(abcABC):  529.17722   529.17722   529.17722    90.00000    90.00000    90.00000  Step:        1100  Bead:       0 forces{eV/ang}  cell{angstrom}
       O -1.17666e+00  1.05576e+00  1.03688e+00
       H -4.39932e-01 -2.25470e-01 -1.58202e-01
       H  1.16833e+00 -4.58573e-01 -5.51956e-01
       O -1.02168e+00 -2.12194e+00  1.31144e+00
       H  7.17317e-01  4.03557e-01 -4.91820e-01
       H  8.03664e-01  1.10873e+00 -6.31975e-01
       H -5.10305e-02  2.37937e-01 -5.14369e-01
7
# CELL(abcABC):  529.17722   529.17722   529.17722    90.00000    90.00000    90.00000  Step:        1120  Bead:       0 forces{eV/ang}  cell{angstrom}
       O -1.98687e+00  1.55387e+00  4.42659e-01
       H  7.65968e-01  4.70875e-01  4.92241e-01
       H  1.60960e+00 -1.55228e+00 -7.78308e-01
       O  6.62989e-02 -7.20757e-01  7.72184e-01
       H -5.19062e-01 -2.65651e-01  4.15608e-01
       H  2.35199e-01  5.48433e-01  2.02937e-01
       H -1.71131e-01 -3.44951e-02 -1.54732e+00
7
# CELL(abcABC):  529.17722   529.17722   529.17722    90.00000    90.00000    90.00000  Step:        1140  Bead:       0 forces{eV/ang}  cell{angstrom}
       O -2.88209e+00  4.53729e-01 -3.11880e-01
       H  4.40337e-01  5.52801e-02  4.06986e-01
       H  2.07079e+00 -9.07708e-01 -1.52768e-01
       O  5.55239e-01  1.52257e+00  2.99547e+00
       H  7.26258e-01  2.29630e-01 -5.20640e-01
       H -5.30708e-01 -1.28592e+00  4.64363e-01
       H -3.79835e-01 -6.75844e-02 -2.88153e+00
7
# CELL(abcABC):  529.17722   529.17722   529.17722    90.00000    90.00000    90.00000  Step:        1160  Bead:       0 forces{eV/ang}  cell{angstrom}
       O -4.55412e-01  3.30690e-01  1.90642e-01
       H -5.57739e-02 -4.41686e-01 -4.11967e-01
       H  7.32025e-01 -3.10989e-01 -1.21041e-01
       O  1.44312e+00  2.57983e+00 -1.21596e-01
       H -5.05470e-01  3.90137e-02  2.72577e-01
       H -1.32563e+00 -2.26573e+00  1.73608e+00
       H  1.67142e-01  6.88631e-02 -1.54469e+00
7
# CELL(abcABC):  529.17722   529.17722   529.17722    90.00000    90.00000    90.00000  Step:        1180  Bead:       0 forces{eV/ang}  cell{angstrom}
       O  7.76357e-01  1.02457e-01  6.84101e-01
       H -7.15442e-01 -3.71841e-01 -1.11975e+00
       H -3.01986e-01  4.69408e-01  3.62629e-01
       O  1.49265e+00  2.72547e+00 -1.15301e+00
       H  1.75306e-01 -1.05065e-03  2.44439e-02
       H -1.41972e+00 -2.76853e+00  1.53020e+00
       H -7.16887e-03 -1.55911e-01 -3.28613e-01
7
# CELL(abcABC):  529.17722   529.17722   529.17722    90.00000    90.00000    90.00000  Step:        1200  Bead:       0 forces{eV/ang}  cell{angstrom}
       O  1.49181e+00 -2.51781e-01  2.21847e+00
       H -3.59819e-01  2.26167e-01 -1.70354e+00
       H -1.12000e+00  5.04576e-01 -1.27555e-01
       O  4.00373e-01 -9.12010e-01 -1.47802e+00
       H -1.66616e-01  2.96562e-01 -1.25197e-01
       H -2.29235e-01 -2.90984e-01  3.59879e-01
       H -1.65084e-02  4.27469e-01  8.55972e-01
7