7
# CELL(abcABC):  529.17722   529.17722   529.17722    90.00000    90.00000    90.00000  Step:           0  Bead:       0 forces{eV/ang}  cell{angstrom}
       O -1.26222e+00 -1.20685e+00 -9.98136e-01
       H  2.05290e+00  1.68008e+00  1.46051e+00
       H -7.77640e-01  5.47471e-01  3.47039e-01
       O  9.37648e-03 -3.24969e-01 -3.84180e-02
       H -7.55587e-02 -5.88536e-01 -5.27979e-01
       H  4.34582e-01  7.78954e-02 -1.37825e-01
       H -3.81441e-01 -1.85092e-01 -1.05191e-01
7
# CELL(abcABC):  529.17722   529.17722   529.17722    90.00000    90.00000    90.00000  Step:          20  Bead:       0 forces{eV/ang}  cell{angstrom}
       O  2.17521e-02 -8.13058e-01 -1.25419e+00
       H  9.90804e-01  4.20006e-01  5.19397e-01
       H -1.01937e+00  8.50566e-02  3.40359e-01
       O -6.91018e-01  2.21022e-01  4.12910e-01
       H  4.02310e-01 -2.85890e-02  1.57862e-01
       H  3.09687e-01  1.39408e-01 -1.31999e-01
       H -1.41650e-02 -2.38448e-02 -4.43370e-02
7
# CELL(abcABC):  529.17722   529.17722   529.17722    90.00000    90.00000    90.00000  Step:          40  Bead:       0 forces{eV/ang}  cell{angstrom}
       O  9.33431e-01 -1.33836e-01 -1.17141e-01
       H -3.89763e-01 -3.11319e-01 -4.40409e-01
       H -4.30336e-01  9.91854e-03  2.31998e-01
       O  1.99246e-01 -6.43960e-02  4.15292e-02
       H -4.68900e-01  4.70623e-01  4.55026e-01
       H  2.70308e-02 -1.99169e-01 -2.23622e-01
       H  1.29291e-01  2.28178e-01  5.26192e-02
7
# CELL(abcABC):  529.17722   529.17722   529.17722    90.00000    90.00000    90.00000  Step:          60  Bead:       0 forces{eV/ang}  cell{angstrom}
       O  1.09060e+00 -6.02201e-01  1.43840e-01
       H -1.07871e+00 -8.36281e-01 -9.55972e-01
       H -4.78264e-02  2.77051e-01  2.31016e-01
       O -1.35049e-01  4.09612e-01  4.18395e-01
       H  1.97359e-01  3.71544e-01 -1.88990e-01
       H -2.27444e-01  7.57922e-02  1.90604e-01
       H  2.01073e-01  3.04483e-01  1.61108e-01
7
# CELL(abcABC):  529.17722   529.17722   529.17722    90.00000    90.00000    90.00000  Step:          80  Bead:       0 forces{eV/ang}  cell{angstrom}
       O  1.38293e+00  1.63057e+00  2.10319e+00
       H -1.71031e+00 -5.07681e-01 -9.57127e-01
       H  4.74122e-01 -7.20712e-02 -5.87531e-01
       O  1.46142e-01 -1.68615e-01 -3.95336e-01
       H -1.82664e-01 -1.23023e+00 -6.12004e-01
       H -3.18121e-01  1.13050e-01  3.37790e-01
       H  2.07903e-01  2.34983e-01  1.11017e-01
7
# CELL(abcABC):  529.17722   529.17722   529.17722    90.00000    90.00000    90.00000  Step:         100  Bead:       0 forces{eV/ang}  cell{angstrom}
       O  4.91558e-01 -8.13588e-02  1.45155e+00
       H -1.69925e+00 -5.10418e-01 -7.16635e-01
       H  9.88082e-01  5.77873e-01 -7.77051e-01
       O -1.09511e-01 -8.03975e-01 -5.56278e-01
       H  4.90211e-01  6.54051e-01  4.52291e-01
       H -4.15018e-01  1.92252e-01  3.22044e-01
       H  2.53925e-01 -2.84245e-02 -1.75922e-01
7
# CELL(abcABC):  529.17722   529.17722   529.17722    90.00000    90.00000    90.00000  Step:         120  Bead:       0 forces{eV/ang}  cell{angstrom}
       O  4.85712e-01  1.22375e+00  2.88322e+00
       H -1.19822e+00 -3.73689e-01 -8.61908e-01
       H  8.13918e-01  7.78682e-02 -1.45357e+00
       O  6.90071e-01 -3.34942e-01 -6.80885e-01
       H -5.07045e-01 -4.73185e-01 -8.38261e-02
       H -3.52651e-01 -2.65182e-01  2.00754e-01
       H  6.82128e-02  1.45378e-01 -3.77904e-03
7
# CELL(abcABC):  529.17722   529.17722   529.17722    90.00000    90.00000    90.00000  Step:         140  Bead:       0 forces{eV/ang}  cell{angstrom}
       O -1.12171e+00 -3.29514e-01  9.15326e-01
       H -7.62651e-01 -4.95995e-01  1.08676e-01
       H  1.46551e+00  7.68604e-01 -7.17846e-01
       O  7.81811e-02 -3.85010e-01 -6.73025e-01
       H  3.92366e-01  3.23198e-01 -2.09404e-01
       H -1.59677e-02  1.81528e-02  2.79972e-01
       H -3.57205e-02  1.00564e-01  2.96302e-01
7
# CELL(abcABC):  529.17722   529.17722   529.17722    90.00000    90.00000    90.00000  Step:         160  Bead:       0 forces{eV/ang}  cell{angstrom}
       O -7.72527e-01  2.20483e-01  1.09283e+00
       H  4.79049e-01  1.10116e-01 -2.71460e-01
       H  3.61962e-01 -4.43041e-01 -9.83681e-01
       O -6.21069e-02  2.02640e-01  1.06279e-01
       H -1.68531e-01  1.72950e-02  3.97292e-01
       H -2.38959e-02 -2.91019e-01 -2.79149e-01
       H  1.86050e-01  1.83526e-01 -6.21104e-02
7
# CELL(abcABC):  529.17722   529.17722   529.17722    90.00000    90.00000    90.00000  Step:         180  Bead:       0 forces{eV/ang}  cell{angstrom}
       O -3.41892e-01 -2.05817e+00 -1.47019e+00
       H  8.62861e-01  1.24991e+00  6.09103e-01
       H -1.08295e-01  1.61959e-01  3.14131e-01
       O -7.54011e-01  4.40235e-01  8.86108e-01
       H -5.00519e-02  7.63379e-03 -2.92538e-01
       H  3.25913e-01  3.69109e-01 -2.12706e-01
       H  6.54753e-02 -1.70680e-01  1.66094e-01
7
# CELL(abcABC):  529.17722   529.17722   529.17722    90.00000    90.00000    90.00000  Step:         200  Bead:       0 forces{eV/ang}  cell{angstrom}
       O  2.90286e-01 -1.31089e+00 -9.74411e-01
       H  1.32764e+00  1.30054e+00  8.90469e-05
       H -1.38485e+00 -3.44407e-01  5.93072e-01
       O -2.00213e-01  8.98433e-01  1.22238e+00
       H -4.06602e-02 -4.61077e-01 -1.98953e-01
       H  4.74610e-02  1.94358e-02 -4.56429e-01
       H -3.96605e-02 -1.02034e-01 -1.85753e-01
7
# CELL(abcABC):  529.17722   529.17722   529.17722    90.00000    90.00000    90.00000  Step:         220  Bead:       0 forces{eV/ang}  cell{angstrom}
       O  1.65171e+00 -1.37596e+00 -1.29365e+00
       H  3.47863e-01  1.04577e+00  9.07827e-02
       H -2.33402e+00  3.48529e-01  1.23689e+00
       O  2.32337e-01 -5.85102e-01 -4.14108e-01
       H  1.68535e-01  5.05390e-01  5.33332e-01
       H  1.94010e-01  2.49455e-01 -3.14765e-01
       H -2.60438e-01 -1.88082e-01  1.61523e-01
7
# CELL(abcABC):  529.17722   529.17722   529.17722    90.00000    90.00000    90.00000  Step:         240  Bead:       0 forces{eV/ang}  cell{angstrom}
       O  1.66854e+00  8.51633e-01  3.28965e-01
       H  2.62007e-01  1.90924e-01 -1.25764e-01
       H -2.03372e+00 -1.42837e-01  6.20382e-01
       O  5.67262e-01  4.89783e-01 -1.59144e-01
       H -1.57323e-01 -7.13226e-01 -3.53099e-01
       H  1.42390e-02 -1.75856e-01 -2.39809e-01
       H -3.21007e-01 -5.00422e-01 -7.15313e-02
7
# CELL(abcABC):  529.17722   529.17722   529.17722    90.00000    90.00000    90.00000  Step:         260  Bead:       0 forces{eV/ang}  cell{angstrom}
       O  7.30670e-01 -6.73091e-02 -6.56423e-01
       H -1.38299e-01 -2.13208e-01  3.44507e-01
       H -6.66535e-01  1.88521e-01  2.64611e-01
       O  2.43614e-01 -8.37734e-02  3.14162e-02
       H  4.43895e-02  6.00558e-01  2.72457e-02
       H -1.36129e-02  1.70612e-01  1.17489e-02
       H -2.00226e-01 -5.95401e-01 -2.31051e-02
7
# CELL(abcABC):  529.17722   529.17722   529.17722    90.00000    90.00000    90.00000  Step:         280  Bead:       0 forces{eV/ang}  cell{angstrom}
       O -4.42627e-01  1.15570e+00 -1.19219e+00
       H -1.73912e-01 -8.01854e-01  9.32162e-01
       H  7.27660e-01 -2.11960e-01 -9.07399e-02
       O  3.07066e-02  3.62618e-01  9.11895e-02
       H -1.73085e-02 -3.09258e-01  7.95446e-02
       H -9.48034e-02 -5.21655e-02  2.38908e-01
       H -2.97169e-02 -1.43085e-01 -5.88731e-02
7
# CELL(abcABC):  529.17722   529.17722   529.17722    90.00000    90.00000    90.00000  Step:         300  Bead:       0 forces{eV/ang}  cell{angstrom}
       O -1.06241e+00  7.73431e-01  3.42860e-01
       H -4.62931e-01 -1.31420e+00  2.41429e-01
       H  1.59986e+00  1.69725e-02 -7.86880e-01
       O -3.96681e-02  9.39514e-02  2.19689e-02
       H  3.57287e-02  2.01754e-01 -2.40229e-01
       H -6.60424e-02 -3.75255e-02  3.58294e-01
       H -4.54119e-03  2.65619e-01  6.25576e-02
7
# CELL(abcABC):  529.17722   529.17722   529.17722    90.00000    90.00000    90.00000  Step:         320  Bead:       0 forces{eV/ang}  cell{angstrom}
       O -1.27299e+00  6.22252e-01  9.18488e-01
       H -4.78844e-01 -1.12507e+00  1.46736e-02
       H  1.93873e+00  1.69790e-01 -1.31629e+00
       O  1.60682e-02  1.09472e-01 -1.59248e-01
       H -1.55632e-01 -2.25543e-01  2.72019e-01
       H -4.62833e-03 -3.00307e-01  2.73958e-01
       H -4.26957e-02  7.49407e-01 -3.60071e-03
7
# CELL(abcABC):  529.17722   529.17722   529.17722    90.00000    90.00000    90.00000  Step:         340  Bead:       0 forces{eV/ang}  cell{angstrom}
       O -1.87667e+00  2.33048e-01  1.81637e+00
       H -3.81799e-01 -8.63676e-01 -1.18880e-01
       H  2.03193e+00  5.31357e-01 -1.47330e+00
       O  1.74575e-01 -1.27014e+00 -1.63581e-01
       H  1.75527e-01  4.21850e-01 -1.62569e-01
       H -6.39960e-02  1.26019e-02  3.92184e-01
       H -5.95687e-02  9.34959e-01 -2.90227e-01
7
# CELL(abcABC):  529.17722   529.17722   529.17722    90.00000    90.00000    90.00000  Step:         360  Bead:       0 forces{eV/ang}  cell{angstrom}
       O -1.16850e+00  1.04471e+00  1.85701e+00
       H -3.85347e-01 -5.76398e-01  6.78934e-02
       H  1.59320e+00  1.78985e-01 -1.58101e+00
       O  3.47827e-01 -1.17021e+00 -9.36689e-01
       H -3.46658e-01 -1.16772e-01  4.23326e-01
       H  5.74197e-02 -1.86079e-01  5.55439e-01
       H -9.79463e-02  8.25769e-01 -3.85970e-01
7
# CELL(abcABC):  529.17722   529.17722   529.17722    90.00000    90.00000    90.00000  Step:         380  Bead:       0 forces{eV/ang}  cell{angstrom}
       O -7.40007e-01  4.80539e-01  1.17887e+00
       H -2.28895e-01 -3.24106e-01 -1.25874e-03
       H  6.53018e-01  2.75103e-01 -6.01337e-01
       O -2.28724e-01 -8.53522e-01 -4.58637e-01
       H  3.28952e-01 -1.49973e-01 -4.86051e-01
       H  1.80734e-01  7.88103e-02  6.49926e-01
       H  3.49217e-02  4.93149e-01 -2.81507e-01
7
# CELL(abcABC):  529.17722   529.17722   529.17722    90.00000    90.00000    90.00000  Step:         400  Bead:       0 forces{eV/ang}  cell{angstrom}
       O  5.70922e-01 -3.65175e-02 -7.92979e-01
       H -6.16615e-02 -5.17463e-02  2.48199e-02
       H -4.57845e-01 -9.19108e-02  4.68733e-01
       O -7.13024e-01  2.19297e-01 -3.08049e-01
       H  1.89772e-01 -1.21383e-01  1.49658e-01
       H  4.39501e-01 -4.25599e-02  4.03678e-01
       H  3.23355e-02  1.24821e-01  5.41386e-02
7
# CELL(abcABC):  529.17722   529.17722   529.17722    90.00000    90.00000    90.00000  Step:         420  Bead:       0 forces{eV/ang}  cell{angstrom}
       O  2.05571e+00 -2.44964e-01 -2.54777e+00
       H  2.88340e-01  3.49130e-01 -7.72023e-02
       H -1.91314e+00 -4.93912e-01  2.13062e+00
       O -1.11337e-01  1.21164e+00  8.58439e-01
       H -4.05842e-01 -1.27019e-01 -4.29337e-01
       H  1.31390e-01 -1.56761e-01  1.18801e-01
       H -4.51222e-02 -5.38109e-01 -5.35513e-02
7
# CELL(abcABC):  529.17722   529.17722   529.17722    90.00000    90.00000    90.00000  Step:         440  Bead:       0 forces{eV/ang}  cell{angstrom}
       O  1.94454e+00 -8.91735e-01 -3.41079e+00
       H  4.90978e-01  9.24267e-01  1.56607e-01
       H -2.31009e+00 -5.84792e-01  2.79695e+00
       O -5.89539e-01  1.23332e+00  3.69949e-01
       H  3.28086e-01 -1.54902e-02  1.06869e-01
       H -1.59110e-01  6.57616e-02 -5.59480e-01
       H  2.95137e-01 -7.31330e-01  5.39891e-01
7
# CELL(abcABC):  529.17722   529.17722   529.17722    90.00000    90.00000    90.00000  Step:         460  Bead:       0 forces{eV/ang}  cell{angstrom}
       O  7.75996e-01 -6.10578e-01 -1.92417e+00
       H  9.21897e-01  1.29962e+00 -1.37243e-02
       H -1.67263e+00 -8.26116e-01  1.97008e+00
       O  6.80306e-01  1.09797e+00  8.23838e-01
       H -1.77461e-01  1.45104e-01 -3.36762e-01
       H -6.73806e-01 -1.76863e-01 -5.52141e-01
       H  1.45700e-01 -9.29134e-01  3.28764e-02
7
# CELL(abcABC):  529.17722   529.17722   529.17722    90.00000    90.00000    90.00000  Step:         480  Bead:       0 forces{eV/ang}  cell{angstrom}
       O -3.48720e-01 -6.37397e-01 -1.03453e+00
       H  6.08025e-01  1.10671e+00  4.71603e-01
       H -3.78537e-01 -3.84734e-02  7.99420e-01
       O  5.29872e-01  1.99589e-01 -2.45328e-01
       H -4.65901e-02 -1.39690e-01  4.09164e-01
       H -7.59283e-01  4.19228e-02 -8.20289e-01
       H  3.95232e-01 -5.32659e-01  4.19965e-01
7
# CELL(abcABC):  529.17722   529.17722   529.17722    90.00000    90.00000    90.00000  Step:         500  Bead:       0 forces{eV/ang}  cell{angstrom}
       O -1.41144e+00  4.87910e-02  1.92821e+00
       H  5.26893e-01  3.47445e-01 -1.43672e-01
       H  4.10444e-01  2.33714e-01 -9.80223e-01
       O  5.43849e-01  4.27156e-01  6.38796e-01
       H  3.42205e-01 -2.30236e-01 -5.49806e-01
       H -5.24070e-01 -3.49449e-01 -6.92635e-01
       H  1.12114e-01 -4.77422e-01 -2.00669e-01
7
# CELL(abcABC):  529.17722   529.17722   529.17722    90.00000    90.00000    90.00000  Step:         520  Bead:       0 forces{eV/ang}  cell{angstrom}
       O  2.12480e-02 -6.25025e-01  1.34501e+00
       H -4.76640e-01 -9.65950e-02  2.11339e-01
       H  6.69631e-01  6.20741e-01 -1.86944e+00
       O  6.24293e-01 -4.98697e-01 -2.65488e-01
       H -4.03553e-01  2.92773e-01  5.29312e-01
       H -4.08096e-01  1.69400e-01 -8.09722e-02
       H -2.68828e-02  1.37405e-01  1.30236e-01
7
# CELL(abcABC):  529.17722   529.17722   529.17722    90.00000    90.00000    90.00000  Step:         540  Bead:       0 forces{eV/ang}  cell{angstrom}
       O  1.00777e+00 -1.20679e+00  1.64385e+00
       H -1.21308e+00 -5.36098e-01 -2.21242e-01
       H  3.28969e-01  9.77182e-01 -2.02685e+00
       O -5.69502e-01  4.24778e-01  3.37476e-01
       H  3.54676e-01  3.09509e-01  1.03133e-01
       H  6.04185e-01 -2.23117e-01  2.06586e-01
       H -5.13018e-01  2.54535e-01 -4.29495e-02
7
# CELL(abcABC):  529.17722   529.17722   529.17722    90.00000    90.00000    90.00000  Step:         560  Bead:       0 forces{eV/ang}  cell{angstrom}
       O  1.19176e+00 -3.97103e-01  1.63366e+00
       H -1.58860e+00 -1.01958e+00  8.58614e-03
       H  7.44049e-01  1.15843e+00 -2.02973e+00
       O -6.90220e-01 -1.32848e+00 -7.01037e-01
       H -1.96985e-01 -1.14594e-01  4.44786e-02
       H  6.78424e-01  8.27607e-01  6.52250e-01
       H -1.38431e-01  8.73719e-01  3.91792e-01
7
# CELL(abcABC):  529.17722   529.17722   529.17722    90.00000    90.00000    90.00000  Step:         580  Bead:       0 forces{eV/ang}  cell{angstrom}
       O  4.17908e-01  6.17236e-01  2.05496e+00
       H -1.08007e+00 -1.55556e+00 -6.53887e-01
       H  6.43539e-01  7.57209e-01 -1.59294e+00
       O -4.32775e-01 -1.21747e-01 -5.97902e-02
       H  3.08008e-02  1.55397e-02  4.55006e-02
       H  1.40937e+00  5.53088e-02  6.37776e-01
       H -9.88775e-01  2.32010e-01 -4.31620e-01
7
# CELL(abcABC):  529.17722   529.17722   529.17722    90.00000    90.00000    90.00000  Step:         600  Bead:       0 forces{eV/ang}  cell{angstrom}
       O -1.07127e-01  1.57973e+00  1.76625e+00
       H -5.91310e-01 -1.68129e+00 -5.95684e-01
       H  4.64274e-01  3.66529e-01 -7.54568e-01
       O -1.65464e-01 -2.28669e+00 -9.58328e-01
       H  2.11778e-02  4.39691e-02  1.54299e-01
       H  8.44933e-01  1.09987e+00  5.18187e-01
       H -4.66484e-01  8.77889e-01 -1.30154e-01
7
# CELL(abcABC):  529.17722   529.17722   529.17722    90.00000    90.00000    90.00000  Step:         620  Bead:       0 forces{eV/ang}  cell{angstrom}
       O  7.68375e-01  1.39544e+00 -2.53489e-01
       H -4.31085e-01 -9.07979e-01  2.35465e-01
       H -4.42343e-01  1.18757e-01  5.28834e-01
       O -2.01806e-01 -6.65111e-01  5.17969e-02
       H  5.82415e-02 -4.71978e-01 -2.70206e-01
       H  8.90292e-01  3.19755e-01  1.20720e-01
       H -6.41673e-01  2.11119e-01 -4.13122e-01
7
# CELL(abcABC):  529.17722   529.17722   529.17722    90.00000    90.00000    90.00000  Step:         640  Bead:       0 forces{eV/ang}  cell{angstrom}
       O  8.95823e-01  5.73433e-01 -8.42633e-01
       H  4.34984e-01  2.04767e-01 -3.41408e-01
       H -1.30296e+00 -7.71988e-01  1.12110e+00
       O  1.18251e-01 -8.25393e-01 -3.47049e-01
       H -8.00641e-02  3.63411e-01  4.90939e-01
       H  1.01650e-01  1.87562e-01 -3.87682e-02
       H -1.67684e-01  2.68207e-01 -4.21804e-02
7
# CELL(abcABC):  529.17722   529.17722   529.17722    90.00000    90.00000    90.00000  Step:         660  Bead:       0 forces{eV/ang}  cell{angstrom}
       O  2.16460e+00 -2.08532e+00 -1.24491e+00
       H -3.63185e-01  1.95448e+00 -4.59471e-01
       H -1.90935e+00 -8.73784e-02  1.16555e+00
       O  9.07681e-02  1.04574e+00  1.03409e+00
       H  2.57970e-01 -5.32074e-02 -1.17770e-01
       H -4.65761e-01 -5.49800e-01 -2.91243e-01
       H  2.24954e-01 -2.24509e-01 -8.62429e-02
7
# CELL(abcABC):  529.17722   529.17722   529.17722    90.00000    90.00000    90.00000  Step:         680  Bead:       0 forces{eV/ang}  cell{angstrom}
       O  1.83844e+00 -2.31543e+00 -8.99497e-02
       H  1.03811e-02  2.77504e+00 -1.54132e+00
       H -1.73513e+00 -9.07135e-01  1.21359e+00
       O  4.62606e-01  1.48150e+00  1.30940e+00
       H -2.01207e-01  1.14482e-01 -3.04743e-01
       H -1.44806e+00 -9.55468e-01 -5.35166e-01
       H  1.07296e+00 -1.92990e-01 -5.18054e-02
7
# CELL(abcABC):  529.17722   529.17722   529.17722    90.00000    90.00000    90.00000  Step:         700  Bead:       0 forces{eV/ang}  cell{angstrom}
       O  1.74549e+00 -3.76812e+00 -3.51580e-01
       H -7.03091e-01  3.56243e+00 -1.00826e+00
       H -1.06294e+00 -5.51283e-02  6.78842e-01
       O -2.51359e-01  2.10946e+00  2.19424e+00
       H  1.93141e-01 -7.00945e-02  1.75765e-01
       H -1.33291e+00 -1.32847e+00 -1.04233e+00
       H  1.41166e+00 -4.50072e-01 -6.46671e-01
7
# CELL(abcABC):  529.17722   529.17722   529.17722    90.00000    90.00000    90.00000  Step:         720  Bead:       0 forces{eV/ang}  cell{angstrom}
       O -6.17456e-02 -1.94224e+00  1.08774e+00
       H  9.44352e-02  3.12675e+00 -6.45938e-01
       H -1.58780e-01 -7.25477e-01  1.34237e-01
       O -3.38004e-01  1.80806e-01  8.15490e-01
       H  2.04779e-01 -2.00575e-01 -1.50436e-01
       H -1.40151e+00 -7.68777e-01 -5.47743e-01
       H  1.66082e+00  3.29510e-01 -6.93351e-01
7
# CELL(abcABC):  529.17722   529.17722   529.17722    90.00000    90.00000    90.00000  Step:         740  Bead:       0 forces{eV/ang}  cell{angstrom}
       O -2.98279e-02 -1.84401e+00 -1.15892e-02
       H -1.76669e-01  1.58049e+00  4.58684e-01
       H  1.91729e-02  6.56939e-01  2.01141e-01
       O  1.11866e-01 -2.80919e-01  8.15818e-01
       H -2.56971e-01 -3.05215e-02  2.46335e-01
       H -2.85020e-01 -1.18094e-01 -5.80979e-01
       H  6.17450e-01  3.61223e-02 -1.12941e+00
7
# CELL(abcABC):  529.17722   529.17722   529.17722    90.00000    90.00000    90.00000  Step:         760  Bead:       0 forces{eV/ang}  cell{angstrom}
       O -6.00993e-01  6.15948e-01  1.91501e+00
       H  1.81128e-01 -3.21920e-01 -7.54305e-01
       H  2.16832e-01 -1.85044e-01 -7.64259e-01
       O -9.13393e-01  1.78825e-02 -1.34569e+00
       H  3.15023e-01  2.89041e-02 -1.91763e-01
       H  7.15143e-02 -3.90669e-01  7.73185e-01
       H  7.29889e-01  2.34899e-01  3.67825e-01
7
# CELL(abcABC):  529.17722   529.17722   529.17722    90.00000    90.00000    90.00000  Step:         780  Bead:       0 forces{eV/ang}  cell{angstrom}
       O  5.82475e-01  7.77125e-01 -4.58855e-01
       H -6.09284e-01 -1.74931e+00  4.55130e-01
       H  2.48397e-01  6.28907e-01 -3.66197e-01
       O -5.80865e-01  8.25192e-01  9.78183e-01
       H -1.64078e-01 -2.06381e-01  5.89164e-02
       H  1.30713e+00  5.34266e-01 -3.54029e-01
       H -7.83772e-01 -8.09800e-01 -3.13147e-01
7
# CELL(abcABC):  529.17722   529.17722   529.17722    90.00000    90.00000    90.00000  Step:         800  Bead:       0 forces{eV/ang}  cell{angstrom}
       O  1.58694e+00  2.04792e+00  2.30233e-01
       H -1.16364e+00 -2.11726e+00 -3.29144e-01
       H -1.30244e-01 -4.12039e-01 -5.77136e-01
       O -1.04921e+00 -2.19714e-01 -1.88916e+00
       H -1.78492e-01  4.30406e-01 -2.34661e-01
       H  9.21835e-01  3.19256e-01  1.20904e+00
       H  1.28095e-02 -4.85704e-02  1.59084e+00
7
# CELL(abcABC):  529.17722   529.17722   529.17722    90.00000    90.00000    90.00000  Step:         820  Bead:       0 forces{eV/ang}  cell{angstrom}
       O  1.33670e+00  2.01390e+00 -1.07650e+00
       H -1.27085e+00 -2.20626e+00  8.94212e-01
       H  7.79208e-02  3.68140e-01 -4.52988e-01
       O -2.23647e-01  4.42894e-01 -2.79650e-01
       H  1.18318e-01 -4.99365e-01  4.92056e-01
       H  1.21174e+00  8.86432e-01 -3.02063e-01
       H -1.25019e+00 -1.00574e+00  7.24936e-01
7
# CELL(abcABC):  529.17722   529.17722   529.17722    90.00000    90.00000    90.00000  Step:         840  Bead:       0 forces{eV/ang}  cell{angstrom}
       O  1.09717e+00  1.40488e+00  2.12419e+00
       H -7.70030e-01 -2.16963e+00 -9.00654e-01
       H -5.22509e-01  4.62578e-01 -2.10259e-01
       O  3.93643e-01 -7.37700e-01 -2.40451e+00
       H  9.87666e-02  5.97276e-01 -8.18977e-01
       H  2.01809e-01  5.27628e-01  8.04904e-01
       H -4.98853e-01 -8.50333e-02  1.40530e+00
7
# CELL(abcABC):  529.17722   529.17722   529.17722    90.00000    90.00000    90.00000  Step:         860  Bead:       0 forces{eV/ang}  cell{angstrom}
       O  4.27560e-01  2.07544e+00  3.90952e-01
       H -3.77485e-01 -1.91768e+00  4.09233e-01
       H -1.74752e-01  7.80010e-01 -6.28200e-01
       O  1.05647e+00  8.71573e-01 -1.08959e+00
       H -3.79753e-01 -1.07480e+00  9.69360e-01
       H  4.77972e-02  2.73801e-01 -2.17387e-01
       H -5.99834e-01 -1.00834e+00  1.65638e-01
7
# CELL(abcABC):  529.17722   529.17722   529.17722    90.00000    90.00000    90.00000  Step:         880  Bead:       0 forces{eV/ang}  cell{angstrom}
       O  4.95866e-01  1.57987e-01  1.96555e+00
       H -1.90753e-01 -7.32513e-01 -6.68045e-01
       H -5.54801e-01  2.27752e-01 -7.82629e-01
       O -1.86820e-01 -5.85446e-01 -9.06669e-02
       H  5.90956e-01  1.17621e+00 -2.63012e-01
       H -3.12470e-01 -6.92138e-01 -2.44936e-01
       H  1.58021e-01  4.48150e-01  8.37423e-02
7
# CELL(abcABC):  529.17722   529.17722   529.17722    90.00000    90.00000    90.00000  Step:         900  Bead:       0 forces{eV/ang}  cell{angstrom}
       O  2.59745e-01 -9.43692e-01 -4.54663e-01
       H -3.62404e-02  1.31679e+00  6.43467e-01
       H -1.05394e-02  3.77828e-01 -6.40005e-01
       O -8.95285e-02  1.08317e+00  1.72636e+00
       H -4.20501e-01 -1.17169e+00  2.07675e-01
       H -5.14249e-01 -9.89154e-01 -2.12890e-01
       H  8.11314e-01  3.26753e-01 -1.26994e+00
7
# CELL(abcABC):  529.17722   529.17722   529.17722    90.00000    90.00000    90.00000  Step:         920  Bead:       0 forces{eV/ang}  cell{angstrom}
       O  7.86295e-01 -3.05345e+00  2.99167e-01
       H -3.80910e-01  2.48034e+00 -8.51393e-01
       H  1.58824e-02 -4.00674e-01 -1.00163e-02
       O -1.01083e+00  2.67030e-01  2.78786e+00
       H -3.25968e-01  8.06346e-01 -3.59864e-01
       H -4.87161e-01 -1.05238e+00 -1.31495e-01
       H  1.40269e+00  9.52792e-01 -1.73426e+00
7
# CELL(abcABC):  529.17722   529.17722   529.17722    90.00000    90.00000    90.00000  Step:         940  Bead:       0 forces{eV/ang}  cell{angstrom}
       O -5.12044e-01 -3.77663e+00 -1.77941e+00
       H -9.25542e-01  4.00678e+00 -1.73845e-02
       H  9.57945e-01 -7.57352e-02  8.61935e-01
       O -1.19083e+00  4.14402e-01  2.18625e+00
       H  8.18733e-01 -5.63742e-01  4.32830e-01
       H -2.78339e-01 -7.73082e-01 -2.18509e-01
       H  1.13008e+00  7.68010e-01 -1.46571e+00
7
# CELL(abcABC):  529.17722   529.17722   529.17722    90.00000    90.00000    90.00000  Step:         960  Bead:       0 forces{eV/ang}  cell{angstrom}
       O  1.04060e-01 -3.12524e+00 -7.41317e-01
       H -1.21131e+00  3.04501e+00 -5.56571e-01
       H  1.71170e+00 -2.87630e-01  1.75296e+00
       O  8.66290e-02  3.19325e-01  2.63647e-01
       H -8.60683e-01  1.59128e-01 -4.78182e-01
       H -2.28164e-01 -4.37346e-01  2.19374e-01
       H  3.97777e-01  3.26753e-01 -4.59912e-01
7
# CELL(abcABC):  529.17722   529.17722   529.17722    90.00000    90.00000    90.00000  Step:         980  Bead:       0 forces{eV/ang}  cell{angstrom}
       O -2.04707e+00 -1.80084e+00 -1.56935e+00
       H -8.00331e-01  2.03403e+00  1.88569e-01
       H  2.33168e+00  1.83954e-01  1.56387e+00
       O -4.32032e-02  8.46493e-02 -5.88085e-01
       H  7.09478e-01 -8.07545e-02  4.32932e-01
       H  2.33427e-01  1.41389e-01 -3.06463e-01
       H -3.83987e-01 -5.62424e-01  2.78523e-01
7
# CELL(abcABC):  529.17722   529.17722   529.17722    90.00000    90.00000    90.00000  Step:        1000  Bead:       0 forces{eV/ang}  cell{angstrom}
       O -1.03055e+00 -5.90921e-02  1.68741e-01
       H -2.48590e-01  5.73675e-02 -3.54269e-01
       H  1.51468e+00  2.30052e-01  1.23368e+00
       O  1.12461e+00 -1.22990e+00 -2.01132e+00
       H -2.87778e-01  2.44661e-01 -6.29271e-01
       H -1.24179e-01  6.37571e-01  1.69306e-01
       H -9.48194e-01  1.19340e-01  1.42313e+00
7
# CELL(abcABC):  529.17722   529.17722   529.17722    90.00000    90.00000    90.00000  Step:        1020  Bead:       0 forces{eV/ang}  cell{angstrom}
       O -6.05094e-01  9.90972e-01 -8.73095e-01
       H  6.67018e-01 -8.90252e-01  4.03837e-01
       H  7.99242e-02  5.42266e-02  1.13269e-02
       O  9.01758e-01  1.53305e-01 -7.38731e-01
       H -2.43933e-01 -4.67051e-01  2.81991e-01
       H  3.02101e-01  9.83912e-01 -3.85283e-01
       H -1.10178e+00 -8.25113e-01  1.29995e+00
7
# CELL(abcABC):  529.17722   529.17722   529.17722    90.00000    90.00000    90.00000  Step:        1040  Bead:       0 forces{eV/ang}  cell{angstrom}
       O -1.08497e+00  1.87639e+00  2.35886e-01
       H  1.35079e+00 -1.41547e+00  2.58065e-01
       H -5.02136e-01 -6.03393e-01 -1.02230e+00
       O  1.30516e+00 -1.27388e+00 -4.92053e-01
       H  5.01948e-01  4.41392e-01  2.66892e-01
       H -3.33741e-01  1.03755e+00 -3.30409e-01
       H -1.23705e+00 -6.25936e-02  1.08392e+00
7
# CELL(abcABC):  529.17722   529.17722   529.17722    90.00000    90.00000    90.00000  Step:        1060  Bead:       0 forces{eV/ang}  cell{angstrom}
       O -3.22765e-02  1.26473e+00  1.32666e+00
       H  2.11514e+00 -1.16040e+00 -3.32461e-01
       H -1.76918e+00 -3.50544e-01 -1.28811e+00
       O  1.41421e+00  4.90065e-01  6.88580e-01
       H -7.57621e-01 -2.41750e-01 -1.83773e-01
       H -7.19632e-02  9.01121e-01 -1.12359e-01
       H -8.98319e-01 -9.03221e-01 -9.85417e-02
7
# CELL(abcABC):  529.17722   529.17722   529.17722    90.00000    90.00000    90.00000  Step:        1080  Bead:       0 forces{eV/ang}  cell{angstrom}
       O -3.50724e-01  1.21584e+00  2.48436e+00
       H  2.07752e+00 -7.69829e-01 -7.87892e-01
       H -2.15554e+00 -5.34166e-01 -1.63212e+00
       O  3.82579e-02 -9.33933e-01 -2.68841e-01
       H  8.50453e-01  2.75660e-01 -1.13477e-01
       H -3.14442e-01  5.62681e-01  1.70361e-01
       H -1.45526e-01  1.83751e-01  1.47604e-01
7
# CELL(abcABC):  529.17722   529.17722   529.17722    90.00000    90.00000    90.00000  Step:        1100  Bead:       0 forces{eV/ang}  cell{angstrom}
       O  1.07737e+00  8.71927e-01  3.04824e+00
       H  1.48504e+00 -3.24624e-01 -1.10889e+00
       H -2.30983e+00 -1.76376e-01 -1.29645e+00
       O -5.75219e-01 -4.62100e-01 -1.18115e-01
       H -5.11622e-01 -2.95793e-01  3.07720e-01
       H  1.67144e-01  2.08216e-01  1.61658e-02
       H  6.67113e-01  1.78750e-01 -8.48662e-01
7
# CELL(abcABC):  529.17722   529.17722   529.17722    90.00000    90.00000    90.00000  Step:        1120  Bead:       0 forces{eV/ang}  cell{angstrom}
       O  4.01519e-01 -1.39134e-01  2.37652e+00
       H  1.14428e+00  3.61961e-01 -6.03973e-01
       H -1.78008e+00 -2.15584e-01 -1.46760e+00
       O -5.41500e-01 -1.03526e+00  1.74566e-01
       H  2.98568e-01  6.20850e-01  1.61837e-01
       H -2.62522e-02 -4.33481e-01 -3.28107e-03
       H  5.03466e-01  8.40644e-01 -6.38069e-01
7
# CELL(abcABC):  529.17722   529.17722   529.17722    90.00000    90.00000    90.00000  Step:        1140  Bead:       0 forces{eV/ang}  cell{angstrom}
       O  1.20573e+00 -1.06600e-02  1.05092e+00
       H  5.73636e-02  1.22121e-01 -1.07627e-01
       H -1.11158e+00  9.09772e-02 -9.70819e-01
       O -3.78274e-01  8.87150e-01  9.26723e-01
       H -2.50323e-01 -5.01196e-01 -4.53899e-02
       H  1.88016e-01 -7.04831e-01 -2.24874e-01
       H  2.89066e-01  1.16438e-01 -6.28934e-01
7
# CELL(abcABC):  529.17722   529.17722   529.17722    90.00000    90.00000    90.00000  Step:        1160  Bead:       0 forces{eV/ang}  cell{angstrom}
       O  8.65667e-01  1.15994e-01 -1.19031e+00
       H -1.10578e+00 -7.20760e-01  9.41200e-01
       H  4.89443e-02  7.93452e-02 -1.38572e-01
       O -1.67693e-01  1.02852e+00  4.50689e-01
       H  2.21811e-01  2.22046e-01 -1.12666e-01
       H  1.29663e-01 -1.01176e+00  4.03286e-02
       H  7.39228e-03  2.86618e-01  9.32786e-03
7
# CELL(abcABC):  529.17722   529.17722   529.17722    90.00000    90.00000    90.00000  Step:        1180  Bead:       0 forces{eV/ang}  cell{angstrom}
       O  5.15744e-01  1.04833e+00 -2.05260e+00
       H -1.59724e+00 -1.37897e+00  8.20826e-01
       H  1.48134e+00  4.20942e-01  9.85641e-01
       O -1.94215e-01  1.18261e+00  4.38468e-01
       H -4.31010e-01 -4.06553e-01 -2.61363e-01
       H  2.35930e-01 -6.52765e-01 -1.93604e-01
       H -1.05467e-02 -2.13596e-01  2.62635e-01
7
# CELL(abcABC):  529.17722   529.17722   529.17722    90.00000    90.00000    90.00000  Step:        1200  Bead:       0 forces{eV/ang}  cell{angstrom}
       O -1.27394e+00 -2.90067e-01 -3.44103e+00
       H -1.58264e+00 -8.76562e-01  1.43071e+00
       H  2.72754e+00  9.21321e-01  1.59389e+00
       O -1.14368e-01 -4.53037e-03 -1.27759e-01
       H  3.59977e-01  2.78131e-01  6.12086e-02
       H -2.08812e-02  3.89606e-02  5.08742e-02
       H -9.56980e-02 -6.72527e-02  4.32111e-01
7