7
Lattice="529.1772105638412 0.0 0.0 0.0 529.1772105638412 0.0 0.0 0.0 529.1772105638412" Properties=species:S:1:pos:R:3:forces_component_raw:R:3 ipi_comment="Step:           0  Bead:       0 forces_component_raw{ase}  cell{ase}" pbc="T T T"
O        0.00000000       0.00000000       0.00000000      -1.26407108      -1.32787834      -1.11224883
H        0.00000000       0.00000000       0.00000000       2.05197405       1.68224639       1.48985196
H        0.00000000       0.00000000       0.00000000      -0.71679050       0.53555444       0.34785501
O        0.00000000       0.00000000       0.00000000      -0.02633932      -0.22791488       0.07444943
H        0.00000000       0.00000000       0.00000000      -0.12745941      -0.52946575      -0.51724327
H        0.00000000       0.00000000       0.00000000       0.48213398       0.08154967      -0.17060864
H        0.00000000       0.00000000       0.00000000      -0.39944772      -0.21409153      -0.11205566
7
Lattice="529.1772105638412 0.0 0.0 0.0 529.1772105638412 0.0 0.0 0.0 529.1772105638412" Properties=species:S:1:pos:R:3:forces_component_raw:R:3 ipi_comment="Step:          20  Bead:       0 forces_component_raw{ase}  cell{ase}" pbc="T T T"
O        0.00000000       0.00000000       0.00000000       0.67763145      -1.09930734      -1.74666543
H        0.00000000       0.00000000       0.00000000       0.99734534       0.41532288       0.52522420
H        0.00000000       0.00000000       0.00000000      -1.81621252       0.42826562       0.81789410
O        0.00000000       0.00000000       0.00000000      -0.68133680       0.35609626       0.73748711
H        0.00000000       0.00000000       0.00000000       0.63725094       0.08960843       0.26458865
H        0.00000000       0.00000000       0.00000000       0.74946133       0.26371872      -0.36300041
H        0.00000000       0.00000000       0.00000000      -0.56413974      -0.45370457      -0.23552822
7
Lattice="529.1772105638412 0.0 0.0 0.0 529.1772105638412 0.0 0.0 0.0 529.1772105638412" Properties=species:S:1:pos:R:3:forces_component_raw:R:3 ipi_comment="Step:          40  Bead:       0 forces_component_raw{ase}  cell{ase}" pbc="T T T"
O        0.00000000       0.00000000       0.00000000       1.06677363      -0.11066844      -0.15050632
H        0.00000000       0.00000000       0.00000000      -0.08796487      -0.07979291      -0.24070066
H        0.00000000       0.00000000       0.00000000      -0.64565926      -0.12172765       0.15927985
O        0.00000000       0.00000000       0.00000000      -0.04771286       0.40088890       0.51178708
H        0.00000000       0.00000000       0.00000000      -0.64218302       0.15708591       0.18018037
H        0.00000000       0.00000000       0.00000000       0.18709123      -0.29055526      -0.38088948
H        0.00000000       0.00000000       0.00000000       0.16965515       0.04476946      -0.07915084
7
Lattice="529.1772105638412 0.0 0.0 0.0 529.1772105638412 0.0 0.0 0.0 529.1772105638412" Properties=species:S:1:pos:R:3:forces_component_raw:R:3 ipi_comment="Step:          60  Bead:       0 forces_component_raw{ase}  cell{ase}" pbc="T T T"
O        0.00000000       0.00000000       0.00000000       0.04879797       0.70220916       1.70904466
H        0.00000000       0.00000000       0.00000000      -1.12308523      -0.77815175      -1.25904623
H        0.00000000       0.00000000       0.00000000       0.52456078       0.44220313      -0.05447411
O        0.00000000       0.00000000       0.00000000      -1.31387266      -1.04741027       0.45344567
H        0.00000000       0.00000000       0.00000000       0.63432574      -0.45535380      -0.58196109
H        0.00000000       0.00000000       0.00000000       0.71770124       0.15159452      -0.45194752
H        0.00000000       0.00000000       0.00000000       0.51157215       0.98490900       0.18493862
7
Lattice="529.1772105638412 0.0 0.0 0.0 529.1772105638412 0.0 0.0 0.0 529.1772105638412" Properties=species:S:1:pos:R:3:forces_component_raw:R:3 ipi_comment="Step:          80  Bead:       0 forces_component_raw{ase}  cell{ase}" pbc="T T T"
O        0.00000000       0.00000000       0.00000000       0.61733150      -0.14551597       2.00769718
H        0.00000000       0.00000000       0.00000000      -1.47526664      -0.62417881      -1.90099440
H        0.00000000       0.00000000       0.00000000       1.18306613       0.44708682      -0.66244528
O        0.00000000       0.00000000       0.00000000      -0.40558205      -0.98657754      -0.03252611
H        0.00000000       0.00000000       0.00000000      -0.46451332      -0.12724672       0.56150829
H        0.00000000       0.00000000       0.00000000      -0.06673174       0.09248332       0.08061142
H        0.00000000       0.00000000       0.00000000       0.61169611       1.34394891      -0.05385111
7
Lattice="529.1772105638412 0.0 0.0 0.0 529.1772105638412 0.0 0.0 0.0 529.1772105638412" Properties=species:S:1:pos:R:3:forces_component_raw:R:3 ipi_comment="Step:         100  Bead:       0 forces_component_raw{ase}  cell{ase}" pbc="T T T"
O        0.00000000       0.00000000       0.00000000       0.69115489      -0.31116643       2.66845669
H        0.00000000       0.00000000       0.00000000      -1.90264762      -0.11366586      -1.84631603
H        0.00000000       0.00000000       0.00000000       1.26538724       0.47868603      -0.61644044
O        0.00000000       0.00000000       0.00000000      -0.39524876      -1.71404479      -0.04034506
H        0.00000000       0.00000000       0.00000000      -0.12193876       0.54595358       0.15297076
H        0.00000000       0.00000000       0.00000000      -0.68626134      -0.38856859       0.55726295
H        0.00000000       0.00000000       0.00000000       1.14955436       1.50280607      -0.87558887
7
Lattice="529.1772105638412 0.0 0.0 0.0 529.1772105638412 0.0 0.0 0.0 529.1772105638412" Properties=species:S:1:pos:R:3:forces_component_raw:R:3 ipi_comment="Step:         120  Bead:       0 forces_component_raw{ase}  cell{ase}" pbc="T T T"
O        0.00000000       0.00000000       0.00000000       0.43019946       0.70389774       2.37860317
H        0.00000000       0.00000000       0.00000000      -1.94183557      -0.01866340      -1.50158812
H        0.00000000       0.00000000       0.00000000       1.35200900      -0.04618724      -0.46817811
O        0.00000000       0.00000000       0.00000000       1.69954241      -2.57702518      -1.21530331
H        0.00000000       0.00000000       0.00000000       0.19812328      -0.56776359      -0.14912785
H        0.00000000       0.00000000       0.00000000      -1.26668854       0.65497381       0.70451757
H        0.00000000       0.00000000       0.00000000      -0.47135005       1.85076786       0.25107665
7
Lattice="529.1772105638412 0.0 0.0 0.0 529.1772105638412 0.0 0.0 0.0 529.1772105638412" Properties=species:S:1:pos:R:3:forces_component_raw:R:3 ipi_comment="Step:         140  Bead:       0 forces_component_raw{ase}  cell{ase}" pbc="T T T"
O        0.00000000       0.00000000       0.00000000      -0.69787658      -0.21854611       1.03784312
H        0.00000000       0.00000000       0.00000000      -0.81033579       0.00352001      -0.79576818
H        0.00000000       0.00000000       0.00000000       1.56478796      -0.36032251      -0.49691388
O        0.00000000       0.00000000       0.00000000      -0.43554121       1.16276894       0.39040511
H        0.00000000       0.00000000       0.00000000       0.15716485       0.04353714      -0.01717085
H        0.00000000       0.00000000       0.00000000      -0.39578584      -1.11912458       0.12120096
H        0.00000000       0.00000000       0.00000000       0.61758662       0.48816710      -0.23959628
7
Lattice="529.1772105638412 0.0 0.0 0.0 529.1772105638412 0.0 0.0 0.0 529.1772105638412" Properties=species:S:1:pos:R:3:forces_component_raw:R:3 ipi_comment="Step:         160  Bead:       0 forces_component_raw{ase}  cell{ase}" pbc="T T T"
O        0.00000000       0.00000000       0.00000000      -1.02170315      -0.13983420      -0.01919759
H        0.00000000       0.00000000       0.00000000       0.22637293       0.09941412       0.33339051
H        0.00000000       0.00000000       0.00000000       0.96431111      -0.52958199      -0.33233029
O        0.00000000       0.00000000       0.00000000       0.77672986      -0.17839236      -0.83523028
H        0.00000000       0.00000000       0.00000000      -0.20835575       0.61940738       0.29663353
H        0.00000000       0.00000000       0.00000000      -0.10188228       0.59680130      -0.08928331
H        0.00000000       0.00000000       0.00000000      -0.63547272      -0.46781427       0.64601744
7
Lattice="529.1772105638412 0.0 0.0 0.0 529.1772105638412 0.0 0.0 0.0 529.1772105638412" Properties=species:S:1:pos:R:3:forces_component_raw:R:3 ipi_comment="Step:         180  Bead:       0 forces_component_raw{ase}  cell{ase}" pbc="T T T"
O        0.00000000       0.00000000       0.00000000      -0.69133982      -0.42374868      -2.02532358
H        0.00000000       0.00000000       0.00000000       0.37865633       0.09326241       1.65598986
H        0.00000000       0.00000000       0.00000000       0.21056203      -0.13672348       0.08987022
O        0.00000000       0.00000000       0.00000000      -2.44829808       1.04685340       1.19980027
H        0.00000000       0.00000000       0.00000000       0.31617074      -0.03759153      -0.15381397
H        0.00000000       0.00000000       0.00000000       1.65979770       0.01177889      -0.77889345
H        0.00000000       0.00000000       0.00000000       0.57445111      -0.55383101       0.01237066
7
Lattice="529.1772105638412 0.0 0.0 0.0 529.1772105638412 0.0 0.0 0.0 529.1772105638412" Properties=species:S:1:pos:R:3:forces_component_raw:R:3 ipi_comment="Step:         200  Bead:       0 forces_component_raw{ase}  cell{ase}" pbc="T T T"
O        0.00000000       0.00000000       0.00000000       0.03507508       0.42761468      -2.41181172
H        0.00000000       0.00000000       0.00000000      -0.09053361       0.05242792       2.51672200
H        0.00000000       0.00000000       0.00000000      -0.16360628       0.17815738       0.07404056
O        0.00000000       0.00000000       0.00000000      -0.61923124      -0.16022245       0.06237649
H        0.00000000       0.00000000       0.00000000      -0.19968981      -0.09807744       0.27223287
H        0.00000000       0.00000000       0.00000000       1.43267852       0.74630142      -1.37829932
H        0.00000000       0.00000000       0.00000000      -0.39469265      -1.14620150       0.86473912
7
Lattice="529.1772105638412 0.0 0.0 0.0 529.1772105638412 0.0 0.0 0.0 529.1772105638412" Properties=species:S:1:pos:R:3:forces_component_raw:R:3 ipi_comment="Step:         220  Bead:       0 forces_component_raw{ase}  cell{ase}" pbc="T T T"
O        0.00000000       0.00000000       0.00000000       1.21030981       0.36893217      -0.97072583
H        0.00000000       0.00000000       0.00000000      -0.67521487      -0.37512088       2.24780913
H        0.00000000       0.00000000       0.00000000      -0.71525433       0.86942932      -0.72771613
O        0.00000000       0.00000000       0.00000000      -1.22738418       0.96073274      -0.04027008
H        0.00000000       0.00000000       0.00000000      -0.27905650       0.11390201      -0.25570426
H        0.00000000       0.00000000       0.00000000       1.20206803      -0.22464493      -0.76776360
H        0.00000000       0.00000000       0.00000000       0.48453204      -1.71323043       0.51437076
7
Lattice="529.1772105638412 0.0 0.0 0.0 529.1772105638412 0.0 0.0 0.0 529.1772105638412" Properties=species:S:1:pos:R:3:forces_component_raw:R:3 ipi_comment="Step:         240  Bead:       0 forces_component_raw{ase}  cell{ase}" pbc="T T T"
O        0.00000000       0.00000000       0.00000000       1.74222713      -0.69730413      -0.19345438
H        0.00000000       0.00000000       0.00000000      -0.95989785      -0.26181435       1.24790071
H        0.00000000       0.00000000       0.00000000      -0.94083419       1.17550437      -0.84126428
O        0.00000000       0.00000000       0.00000000      -0.23167198       0.89578865      -0.49905909
H        0.00000000       0.00000000       0.00000000       0.07791482      -0.00944901      -0.09626922
H        0.00000000       0.00000000       0.00000000       0.45729677       0.46288712      -0.60395461
H        0.00000000       0.00000000       0.00000000      -0.14503470      -1.56561265       0.98610087
7
Lattice="529.1772105638412 0.0 0.0 0.0 529.1772105638412 0.0 0.0 0.0 529.1772105638412" Properties=species:S:1:pos:R:3:forces_component_raw:R:3 ipi_comment="Step:         260  Bead:       0 forces_component_raw{ase}  cell{ase}" pbc="T T T"
O        0.00000000       0.00000000       0.00000000       0.44790198      -1.63334053       0.62527165
H        0.00000000       0.00000000       0.00000000       0.09535484      -0.25085323       0.53408113
H        0.00000000       0.00000000       0.00000000      -0.46925343       1.44894467      -1.34371611
O        0.00000000       0.00000000       0.00000000      -0.17460180       2.41779168      -0.32147080
H        0.00000000       0.00000000       0.00000000       0.04205173      -0.20420350      -0.08526945
H        0.00000000       0.00000000       0.00000000      -0.15439379      -0.47715539       0.31994262
H        0.00000000       0.00000000       0.00000000       0.21294046      -1.30118370       0.27116096
7
Lattice="529.1772105638412 0.0 0.0 0.0 529.1772105638412 0.0 0.0 0.0 529.1772105638412" Properties=species:S:1:pos:R:3:forces_component_raw:R:3 ipi_comment="Step:         280  Bead:       0 forces_component_raw{ase}  cell{ase}" pbc="T T T"
O        0.00000000       0.00000000       0.00000000       0.24799193      -2.20121593       0.50400263
H        0.00000000       0.00000000       0.00000000       0.66361014       0.51956766      -0.78955199
H        0.00000000       0.00000000       0.00000000      -0.43708414       0.60462660      -0.38299808
O        0.00000000       0.00000000       0.00000000       0.18437032      -0.26191121      -0.03358942
H        0.00000000       0.00000000       0.00000000      -0.21285111       0.26432567       0.23968967
H        0.00000000       0.00000000       0.00000000      -0.20289579       0.37561303       0.22774225
H        0.00000000       0.00000000       0.00000000      -0.24314136       0.69899419       0.23470494
7
Lattice="529.1772105638412 0.0 0.0 0.0 529.1772105638412 0.0 0.0 0.0 529.1772105638412" Properties=species:S:1:pos:R:3:forces_component_raw:R:3 ipi_comment="Step:         300  Bead:       0 forces_component_raw{ase}  cell{ase}" pbc="T T T"
O        0.00000000       0.00000000       0.00000000      -0.94841692       0.78767564       1.37488767
H        0.00000000       0.00000000       0.00000000       0.92368870      -0.13411876      -1.10758344
H        0.00000000       0.00000000       0.00000000      -0.08457471       0.14047439      -0.04210052
O        0.00000000       0.00000000       0.00000000      -0.44548099      -1.02493653       0.84626018
H        0.00000000       0.00000000       0.00000000       0.31782274      -1.08536720      -0.45771566
H        0.00000000       0.00000000       0.00000000       0.00770900      -0.19320739       0.08748884
H        0.00000000       0.00000000       0.00000000       0.22925217       1.50947985      -0.70123706
7
Lattice="529.1772105638412 0.0 0.0 0.0 529.1772105638412 0.0 0.0 0.0 529.1772105638412" Properties=species:S:1:pos:R:3:forces_component_raw:R:3 ipi_comment="Step:         320  Bead:       0 forces_component_raw{ase}  cell{ase}" pbc="T T T"
O        0.00000000       0.00000000       0.00000000      -0.93903786       0.35427016       0.27813270
H        0.00000000       0.00000000       0.00000000       1.01832953       0.09326496      -1.06299472
H        0.00000000       0.00000000       0.00000000      -0.05238068      -0.76063765       0.58645739
O        0.00000000       0.00000000       0.00000000      -0.09216904      -2.91170078       0.33806361
H        0.00000000       0.00000000       0.00000000       0.14999895       0.69406965       0.37689454
H        0.00000000       0.00000000       0.00000000       0.14649261       0.46488779      -0.00247780
H        0.00000000       0.00000000       0.00000000      -0.23123350       2.06584587      -0.51407572
7
Lattice="529.1772105638412 0.0 0.0 0.0 529.1772105638412 0.0 0.0 0.0 529.1772105638412" Properties=species:S:1:pos:R:3:forces_component_raw:R:3 ipi_comment="Step:         340  Bead:       0 forces_component_raw{ase}  cell{ase}" pbc="T T T"
O        0.00000000       0.00000000       0.00000000       0.37912479       2.29560550      -0.45686911
H        0.00000000       0.00000000       0.00000000      -0.17391432      -0.24546126       0.11651048
H        0.00000000       0.00000000       0.00000000      -0.09901209      -1.88231048       0.62410039
O        0.00000000       0.00000000       0.00000000      -0.28891062      -0.75622153       1.00552643
H        0.00000000       0.00000000       0.00000000      -0.43957579      -0.23164991      -0.42225218
H        0.00000000       0.00000000       0.00000000       0.30858003      -0.56889964      -0.13616227
H        0.00000000       0.00000000       0.00000000       0.31370799       1.38893733      -0.73085373
7
Lattice="529.1772105638412 0.0 0.0 0.0 529.1772105638412 0.0 0.0 0.0 529.1772105638412" Properties=species:S:1:pos:R:3:forces_component_raw:R:3 ipi_comment="Step:         360  Bead:       0 forces_component_raw{ase}  cell{ase}" pbc="T T T"
O        0.00000000       0.00000000       0.00000000       1.90311571       1.03281922      -0.99169114
H        0.00000000       0.00000000       0.00000000      -1.22539414       0.32727340       0.60789131
H        0.00000000       0.00000000       0.00000000      -0.84373440      -1.07032807       0.64129794
O        0.00000000       0.00000000       0.00000000       0.96873100      -0.57514089      -0.04195943
H        0.00000000       0.00000000       0.00000000       0.26160037      -0.14339375      -0.27827529
H        0.00000000       0.00000000       0.00000000      -0.63033793       0.21757799       0.06227132
H        0.00000000       0.00000000       0.00000000      -0.43398061       0.21119211       0.00046528
7
Lattice="529.1772105638412 0.0 0.0 0.0 529.1772105638412 0.0 0.0 0.0 529.1772105638412" Properties=species:S:1:pos:R:3:forces_component_raw:R:3 ipi_comment="Step:         380  Bead:       0 forces_component_raw{ase}  cell{ase}" pbc="T T T"
O        0.00000000       0.00000000       0.00000000       1.55353592       0.60307733      -0.87671095
H        0.00000000       0.00000000       0.00000000      -1.50133506      -0.16549319       0.43431180
H        0.00000000       0.00000000       0.00000000       0.03835004      -0.74716794       0.06377004
O        0.00000000       0.00000000       0.00000000      -0.19230354       1.05868568      -0.29039506
H        0.00000000       0.00000000       0.00000000       0.24922589      -0.13032517       0.23069478
H        0.00000000       0.00000000       0.00000000      -0.38626737      -0.37835116       0.34812532
H        0.00000000       0.00000000       0.00000000       0.23879413      -0.24042554       0.09020407
7
Lattice="529.1772105638412 0.0 0.0 0.0 529.1772105638412 0.0 0.0 0.0 529.1772105638412" Properties=species:S:1:pos:R:3:forces_component_raw:R:3 ipi_comment="Step:         400  Bead:       0 forces_component_raw{ase}  cell{ase}" pbc="T T T"
O        0.00000000       0.00000000       0.00000000       0.79389370      -2.23070609      -0.63652502
H        0.00000000       0.00000000       0.00000000      -0.76456515       0.41431953       0.06372988
H        0.00000000       0.00000000       0.00000000       0.23300809       1.21795964      -0.02691299
O        0.00000000       0.00000000       0.00000000      -0.17943643       1.64044689      -0.11152665
H        0.00000000       0.00000000       0.00000000      -0.11664059       0.10457709       0.09494343
H        0.00000000       0.00000000       0.00000000       0.13479735       0.11785757      -0.12477096
H        0.00000000       0.00000000       0.00000000      -0.10105697      -1.26445464       0.74106231
7
Lattice="529.1772105638412 0.0 0.0 0.0 529.1772105638412 0.0 0.0 0.0 529.1772105638412" Properties=species:S:1:pos:R:3:forces_component_raw:R:3 ipi_comment="Step:         420  Bead:       0 forces_component_raw{ase}  cell{ase}" pbc="T T T"
O        0.00000000       0.00000000       0.00000000      -1.51498929      -2.78353448      -1.22380309
H        0.00000000       0.00000000       0.00000000       0.42656754      -0.06526278       0.27046189
H        0.00000000       0.00000000       0.00000000       1.20773495       2.19813828       0.25598027
O        0.00000000       0.00000000       0.00000000      -0.34709816       1.96692741       0.03693901
H        0.00000000       0.00000000       0.00000000       0.01438848      -0.12211392       0.09648334
H        0.00000000       0.00000000       0.00000000       0.61959607       0.26320970      -0.45374490
H        0.00000000       0.00000000       0.00000000      -0.40619960      -1.45736420       1.01768348
7
Lattice="529.1772105638412 0.0 0.0 0.0 529.1772105638412 0.0 0.0 0.0 529.1772105638412" Properties=species:S:1:pos:R:3:forces_component_raw:R:3 ipi_comment="Step:         440  Bead:       0 forces_component_raw{ase}  cell{ase}" pbc="T T T"
O        0.00000000       0.00000000       0.00000000      -1.65921021      -1.17601512      -0.27404388
H        0.00000000       0.00000000       0.00000000       0.58766689       0.10084840       0.21492060
H        0.00000000       0.00000000       0.00000000       0.89365769       1.70635744       0.41091986
O        0.00000000       0.00000000       0.00000000      -0.55283946       2.02161715      -0.42356640
H        0.00000000       0.00000000       0.00000000      -0.05450118      -0.50315678      -0.22402705
H        0.00000000       0.00000000       0.00000000       1.10403877      -0.13482415      -0.70834932
H        0.00000000       0.00000000       0.00000000      -0.31881250      -2.01482695       1.00414620
7
Lattice="529.1772105638412 0.0 0.0 0.0 529.1772105638412 0.0 0.0 0.0 529.1772105638412" Properties=species:S:1:pos:R:3:forces_component_raw:R:3 ipi_comment="Step:         460  Bead:       0 forces_component_raw{ase}  cell{ase}" pbc="T T T"
O        0.00000000       0.00000000       0.00000000      -0.47274062       0.70205916       0.48062650
H        0.00000000       0.00000000       0.00000000       0.23630623      -0.31067225      -0.03544104
H        0.00000000       0.00000000       0.00000000       0.17117464       0.22684496       0.18925128
O        0.00000000       0.00000000       0.00000000      -0.97794668      -1.31062044      -0.38284418
H        0.00000000       0.00000000       0.00000000      -0.30709027       0.85209628       0.39392751
H        0.00000000       0.00000000       0.00000000       1.71249801       0.45432203      -1.00028389
H        0.00000000       0.00000000       0.00000000      -0.36220130      -0.61402973       0.35476381
7
Lattice="529.1772105638412 0.0 0.0 0.0 529.1772105638412 0.0 0.0 0.0 529.1772105638412" Properties=species:S:1:pos:R:3:forces_component_raw:R:3 ipi_comment="Step:         480  Bead:       0 forces_component_raw{ase}  cell{ase}" pbc="T T T"
O        0.00000000       0.00000000       0.00000000       1.01352697       1.74058264       0.95611631
H        0.00000000       0.00000000       0.00000000       0.03433284      -0.01849630      -0.05531708
H        0.00000000       0.00000000       0.00000000      -1.51079933      -0.99504588      -0.23730476
O        0.00000000       0.00000000       0.00000000      -1.59637712      -0.15481177       0.83176643
H        0.00000000       0.00000000       0.00000000       0.56881095      -0.70466996      -0.46747277
H        0.00000000       0.00000000       0.00000000       1.14197210      -0.26561981      -0.81798625
H        0.00000000       0.00000000       0.00000000       0.34853359       0.39806108      -0.20980187
7
Lattice="529.1772105638412 0.0 0.0 0.0 529.1772105638412 0.0 0.0 0.0 529.1772105638412" Properties=species:S:1:pos:R:3:forces_component_raw:R:3 ipi_comment="Step:         500  Bead:       0 forces_component_raw{ase}  cell{ase}" pbc="T T T"
O        0.00000000       0.00000000       0.00000000       3.41332790      -0.34135704      -0.10568417
H        0.00000000       0.00000000       0.00000000      -0.87645288       0.59210093      -0.29617568
H        0.00000000       0.00000000       0.00000000      -2.29754681      -1.28088518      -0.32403935
O        0.00000000       0.00000000       0.00000000       0.17483052      -0.29860842      -0.25179579
H        0.00000000       0.00000000       0.00000000       0.08473534       0.21591872       0.28272013
H        0.00000000       0.00000000       0.00000000      -0.20855376       0.21724677       0.17188493
H        0.00000000       0.00000000       0.00000000      -0.29034031       0.89558423       0.52308991
7
Lattice="529.1772105638412 0.0 0.0 0.0 529.1772105638412 0.0 0.0 0.0 529.1772105638412" Properties=species:S:1:pos:R:3:forces_component_raw:R:3 ipi_comment="Step:         520  Bead:       0 forces_component_raw{ase}  cell{ase}" pbc="T T T"
O        0.00000000       0.00000000       0.00000000       2.52930167       0.03231485       0.32494362
H        0.00000000       0.00000000       0.00000000      -0.07418252       0.13643416      -0.17206594
H        0.00000000       0.00000000       0.00000000      -2.10517525      -1.19038663      -0.68827551
O        0.00000000       0.00000000       0.00000000       0.25369995       0.71553499       0.27160482
H        0.00000000       0.00000000       0.00000000      -0.03168635       0.36509294      -0.33530383
H        0.00000000       0.00000000       0.00000000      -1.38275027      -0.73998947       1.00216763
H        0.00000000       0.00000000       0.00000000       0.81079276       0.68099915      -0.40307079
7
Lattice="529.1772105638412 0.0 0.0 0.0 529.1772105638412 0.0 0.0 0.0 529.1772105638412" Properties=species:S:1:pos:R:3:forces_component_raw:R:3 ipi_comment="Step:         540  Bead:       0 forces_component_raw{ase}  cell{ase}" pbc="T T T"
O        0.00000000       0.00000000       0.00000000       0.61386293       1.59437854      -0.30382657
H        0.00000000       0.00000000       0.00000000       0.23348040      -0.47842490       0.35530261
H        0.00000000       0.00000000       0.00000000      -0.73381992      -1.15697625      -0.58641517
O        0.00000000       0.00000000       0.00000000       0.82124393      -1.84251173      -2.08309143
H        0.00000000       0.00000000       0.00000000      -0.14090317      -0.29421606       0.34369881
H        0.00000000       0.00000000       0.00000000      -0.88956282       1.25498971       1.74700632
H        0.00000000       0.00000000       0.00000000       0.09569866       0.92276068       0.52732543
7
Lattice="529.1772105638412 0.0 0.0 0.0 529.1772105638412 0.0 0.0 0.0 529.1772105638412" Properties=species:S:1:pos:R:3:forces_component_raw:R:3 ipi_comment="Step:         560  Bead:       0 forces_component_raw{ase}  cell{ase}" pbc="T T T"
O        0.00000000       0.00000000       0.00000000      -0.80980318       0.57259076      -0.77614122
H        0.00000000       0.00000000       0.00000000       0.62367309      -0.52236397       0.67894665
H        0.00000000       0.00000000       0.00000000       0.39158870       0.39000307       0.41960019
O        0.00000000       0.00000000       0.00000000       1.57397486       0.45305236      -1.08330678
H        0.00000000       0.00000000       0.00000000      -0.25148822      -0.15448965      -0.44630607
H        0.00000000       0.00000000       0.00000000      -1.68536793       0.16012052       1.77444222
H        0.00000000       0.00000000       0.00000000       0.15742268      -0.89891310      -0.56723499
7
Lattice="529.1772105638412 0.0 0.0 0.0 529.1772105638412 0.0 0.0 0.0 529.1772105638412" Properties=species:S:1:pos:R:3:forces_component_raw:R:3 ipi_comment="Step:         580  Bead:       0 forces_component_raw{ase}  cell{ase}" pbc="T T T"
O        0.00000000       0.00000000       0.00000000      -2.14724591       1.36180507      -1.73437227
H        0.00000000       0.00000000       0.00000000       0.78094563      -1.33092095       0.89083218
H        0.00000000       0.00000000       0.00000000       1.21359172       0.69544046       1.60584822
O        0.00000000       0.00000000       0.00000000       1.32882268      -2.21093563      -1.87957539
H        0.00000000       0.00000000       0.00000000      -0.01674164       0.37055033       0.27823080
H        0.00000000       0.00000000       0.00000000      -0.28342703       1.16055657       0.42013964
H        0.00000000       0.00000000       0.00000000      -0.87594544      -0.04649585       0.41889682
7
Lattice="529.1772105638412 0.0 0.0 0.0 529.1772105638412 0.0 0.0 0.0 529.1772105638412" Properties=species:S:1:pos:R:3:forces_component_raw:R:3 ipi_comment="Step:         600  Bead:       0 forces_component_raw{ase}  cell{ase}" pbc="T T T"
O        0.00000000       0.00000000       0.00000000      -1.83815498       0.78338450      -2.70289182
H        0.00000000       0.00000000       0.00000000       0.44971674      -0.81277571       0.83466399
H        0.00000000       0.00000000       0.00000000       1.24436337       0.52471267       2.14426871
O        0.00000000       0.00000000       0.00000000       0.90303226       1.33204628       0.35320813