7
Properties=species:S:1:pos:R:3 ipi_comment="Step:           0  Bead:       0 positions{ase}  cell{ase}" pbc="F F F"
O       -0.24525292       0.92704947       0.70060630
H        0.50572486       1.32109162       1.06381283
H       -1.11256270       1.27455707       0.89327293
O        0.24664311      -0.93881000      -0.68037431
H       -0.04364253       0.07101824       0.05101683
H        1.06001929      -1.02699918      -1.19234993
H       -0.43160411      -1.45300416      -1.13687519
7
Properties=species:S:1:pos:R:3 ipi_comment="Step:          20  Bead:       0 positions{ase}  cell{ase}" pbc="F F F"
O       -0.25403281       0.96424847       0.71885472
H        0.46036584       1.36768721       1.20369955
H       -1.08146423       1.18344446       1.14312086
O        0.25703477      -0.96114728      -0.71899351
H       -0.07667076       0.01119965      -0.05325576
H        1.08681744      -1.07006956      -1.20829193
H       -0.43669557      -1.54148378      -1.08306965
7
Properties=species:S:1:pos:R:3 ipi_comment="Step:          40  Bead:       0 positions{ase}  cell{ase}" pbc="F F F"
O       -0.25888711       1.00286825       0.73732273
H        0.42564825       1.44051108       1.30210765
H       -1.06694143       0.98096814       1.26688986
O        0.25183856      -0.98093264      -0.74968432
H        0.06743919      -0.14653135      -0.10489867
H        1.11041281      -1.00127813      -1.20957222
H       -0.42468411      -1.62183209      -1.05832297
7
Properties=species:S:1:pos:R:3 ipi_comment="Step:          60  Bead:       0 positions{ase}  cell{ase}" pbc="F F F"
O       -0.26522538       1.01593859       0.74326356
H        0.46567434       1.42698835       1.32255736
H       -1.02297763       0.77282929       1.31232379
O        0.25701039      -0.98276354      -0.76299464
H        0.02494890      -0.04517039       0.05652044
H        1.06733919      -1.03313882      -1.31674906
H       -0.40459645      -1.64806334      -1.06148037
7
Properties=species:S:1:pos:R:3 ipi_comment="Step:          80  Bead:       0 positions{ase}  cell{ase}" pbc="F F F"
O       -0.27306907       0.97544911       0.72474225
H        0.56469494       1.30013619       1.24354490
H       -0.97857437       0.75275615       1.39429521
O        0.26188479      -0.95124174      -0.74473228
H        0.00689523       0.20823370       0.07843228
H        1.00182809      -1.03783536      -1.38758362
H       -0.41732681      -1.60751039      -1.01140636
7
Properties=species:S:1:pos:R:3 ipi_comment="Step:         100  Bead:       0 positions{ase}  cell{ase}" pbc="F F F"
O       -0.26923593       0.95156886       0.71322114
H        0.59568520       1.23973841       1.18331166
H       -0.93467608       0.68234525       1.42501350
O        0.26226513      -0.91544063      -0.72431572
H       -0.07246757      -0.01687130      -0.09742907
H        0.97836865      -0.93073581      -1.40325115
H       -0.45626960      -1.54790439      -0.93155140
7
Properties=species:S:1:pos:R:3 ipi_comment="Step:         120  Bead:       0 positions{ase}  cell{ase}" pbc="F F F"
O       -0.26468637       0.92199672       0.69802312
H        0.56552883       1.27738755       1.17043645
H       -0.89944659       0.71538104       1.47157468
O        0.25372683      -0.90629990      -0.71289040
H        0.02408105       0.04933748       0.03338543
H        0.89730278      -0.73063756      -1.43676673
H       -0.41351604      -1.56060853      -1.00265589
7
Properties=species:S:1:pos:R:3 ipi_comment="Step:         140  Bead:       0 positions{ase}  cell{ase}" pbc="F F F"
O       -0.25532284       0.92474792       0.72736594
H        0.52470301       1.43720033       1.06811712
H       -0.98657468       0.73536680       1.40763550
O        0.26506351      -0.92224664      -0.72437108
H       -0.06358297      -0.05209348       0.06459147
H        0.76908569      -0.60812386      -1.50769667
H       -0.39823530      -1.55205005      -1.08018188
7
Properties=species:S:1:pos:R:3 ipi_comment="Step:         160  Bead:       0 positions{ase}  cell{ase}" pbc="F F F"
O       -0.26645806       0.92549882       0.75907151
H        0.42007960       1.52195286       1.10016393
H       -0.94196869       0.97010797       1.49491266
O        0.28726314      -0.94692781      -0.75603683
H       -0.00005652      -0.11640297      -0.08428523
H        0.67824485      -0.53062182      -1.55262270
H       -0.48651798      -1.50491436      -1.00633519
7
Properties=species:S:1:pos:R:3 ipi_comment="Step:         180  Bead:       0 positions{ase}  cell{ase}" pbc="F F F"
O       -0.27249474       0.93212401       0.80428768
H        0.41451856       1.56463845       0.94494380
H       -1.03261577       0.98516901       1.39892848
O        0.30542756      -0.95733117      -0.78657794
H        0.04263608      -0.06868340       0.00307901
H        0.57744794      -0.63169684      -1.66189666
H       -0.52469731      -1.44933835      -0.96614393
7
Properties=species:S:1:pos:R:3 ipi_comment="Step:         200  Bead:       0 positions{ase}  cell{ase}" pbc="F F F"
O       -0.25328653       0.90444166       0.80861488
H        0.25259817       1.67938962       0.99152698
H       -1.03487046       0.99798160       1.33919737
O        0.29448211      -0.93835513      -0.79252205
H        0.02983268       0.01934556      -0.03883730
H        0.57739358      -0.63067065      -1.66777920
H       -0.47881127      -1.52777063      -0.87953348
7
Properties=species:S:1:pos:R:3 ipi_comment="Step:         220  Bead:       0 positions{ase}  cell{ase}" pbc="F F F"
O       -0.22602379       0.87219331       0.80943118
H        0.18210281       1.72791046       0.89338731
H       -1.07899358       0.84487706       1.17238898
O        0.27248085      -0.88834065      -0.77205243
H       -0.03817203      -0.04796507      -0.13651696
H        0.55699525      -0.64448035      -1.66827089
H       -0.35930007      -1.62405093      -0.85426475
7
Properties=species:S:1:pos:R:3 ipi_comment="Step:         240  Bead:       0 positions{ase}  cell{ase}" pbc="F F F"
O       -0.21363528       0.83585775       0.81788728
H        0.09659246       1.75133833       0.70645053
H       -1.10385092       0.86828933       1.11567631
O        0.25493628      -0.86161436      -0.77897715
H        0.03225759       0.10853382       0.02186883
H        0.55271650      -0.62881775      -1.67256349
H       -0.23324611      -1.69053410      -0.78901467
7
Properties=species:S:1:pos:R:3 ipi_comment="Step:         260  Bead:       0 positions{ase}  cell{ase}" pbc="F F F"
O       -0.20897266       0.84109371       0.86856118
H        0.04027138       1.69633582       0.44203967
H       -1.16070926       0.88188455       1.02733115
O        0.25503983      -0.84823769      -0.80950590
H       -0.00128143      -0.04621541       0.04535089
H        0.52976915      -0.69620201      -1.73184540
H       -0.13922919      -1.72241335      -0.72020299
7
Properties=species:S:1:pos:R:3 ipi_comment="Step:         280  Bead:       0 positions{ase}  cell{ase}" pbc="F F F"
O       -0.20988160       0.84840406       0.89879297
H        0.00343088       1.70092436       0.39262862
H       -1.18819095       0.92842901       1.09842388
O        0.25855445      -0.86164615      -0.84018439
H       -0.06258852       0.06703150       0.09234687
H        0.48499817      -0.69596896      -1.77971054
H       -0.01018627      -1.79023691      -0.73392544
7
Properties=species:S:1:pos:R:3 ipi_comment="Step:         300  Bead:       0 positions{ase}  cell{ase}" pbc="F F F"
O       -0.22099824       0.85803289       0.88525614
H        0.07640590       1.79595332       0.64697896
H       -1.15223572       0.87653463       1.30908640
O        0.25793132      -0.87159070      -0.85324986
H       -0.04210436       0.03716005       0.11480260
H        0.39366748      -0.65301042      -1.80168059
H        0.13806400      -1.84144756      -0.77719174
7
Properties=species:S:1:pos:R:3 ipi_comment="Step:         320  Bead:       0 positions{ase}  cell{ase}" pbc="F F F"
O       -0.22600298       0.85014824       0.86744826
H        0.11069174       1.79621267       0.81643591
H       -1.10157692       0.79563699       1.42185626
O        0.25376847      -0.86262989      -0.84813824
H        0.00423021       0.06145845      -0.00682293
H        0.30986787      -0.60646694      -1.79587209
H        0.23609252      -1.84873201      -0.74208605
7
Properties=species:S:1:pos:R:3 ipi_comment="Step:         340  Bead:       0 positions{ase}  cell{ase}" pbc="F F F"
O       -0.22445076       0.82858726       0.84266549
H        0.14523060       1.75213666       0.90660986
H       -1.04325461       0.70605699       1.47732637
O        0.25077417      -0.82526791      -0.83912870
H       -0.02814375      -0.04324402      -0.00964758
H        0.22097749      -0.66951789      -1.81065060
H        0.28738453      -1.79811644      -0.61977389
7
Properties=species:S:1:pos:R:3 ipi_comment="Step:         360  Bead:       0 positions{ase}  cell{ase}" pbc="F F F"
O       -0.23292728       0.79970220       0.83291609
H        0.19233928       1.69233797       0.88534447
H       -0.97769377       0.71594404       1.54242275
O        0.25619227      -0.79944581      -0.83296337
H        0.03887937       0.03504388      -0.09394434
H        0.08217094      -0.69991470      -1.80103732
H        0.29504154      -1.74748048      -0.53203499
7
Properties=species:S:1:pos:R:3 ipi_comment="Step:         380  Bead:       0 positions{ase}  cell{ase}" pbc="F F F"
O       -0.24079951       0.80246178       0.84429735
H        0.22822092       1.66470451       0.88981357
H       -0.92930470       0.67844920       1.55207198
O        0.27970407      -0.79401473      -0.85411864
H       -0.09443797       0.03279973       0.02219398
H       -0.10005808      -0.77888067      -1.77043516
H        0.27808569      -1.73114438      -0.53776056
7
Properties=species:S:1:pos:R:3 ipi_comment="Step:         400  Bead:       0 positions{ase}  cell{ase}" pbc="F F F"
O       -0.25807383       0.81798108       0.87495611
H        0.21903107       1.66698681       0.92312668
H       -0.88954198       0.75212070       1.59576708
O        0.30468212      -0.80982025      -0.88859109
H       -0.03271412      -0.05611518      -0.07232910
H       -0.31500663      -0.75456734      -1.66383333
H        0.27846384      -1.73795371      -0.56631654
7
Properties=species:S:1:pos:R:3 ipi_comment="Step:         420  Bead:       0 positions{ase}  cell{ase}" pbc="F F F"
O       -0.27236296       0.83077287       0.89812099
H        0.19215237       1.67444721       0.97019730
H       -0.86020910       0.78280248       1.60904597
O        0.31199112      -0.82408777      -0.92442919
H        0.14269786      -0.10030385      -0.02594356
H       -0.43738107      -0.73135589      -1.55507462
H        0.33376073      -1.73169577      -0.58066058
7
Properties=species:S:1:pos:R:3 ipi_comment="Step:         440  Bead:       0 positions{ase}  cell{ase}" pbc="F F F"
O       -0.26583164       0.83223413       0.89679909
H        0.17322429       1.66957999       1.01423124
H       -0.84796571       0.66186668       1.57800306
O        0.31208130      -0.81276086      -0.92332840
H        0.04937447      -0.11402121      -0.03898424
H       -0.49387820      -0.78781253      -1.47132771
H        0.38516927      -1.73869301      -0.66084848
7
Properties=species:S:1:pos:R:3 ipi_comment="Step:         460  Bead:       0 positions{ase}  cell{ase}" pbc="F F F"
O       -0.25363869       0.80481809       0.86904750
H        0.16156491       1.62935217       1.07529567
H       -0.80345832       0.59916035       1.58710430
O        0.28193235      -0.78437279      -0.90089218
H        0.07216126      -0.06853605      -0.01156245
H       -0.42049090      -0.82875442      -1.55366880
H        0.54114536      -1.65573022      -0.59172911
7
Properties=species:S:1:pos:R:3 ipi_comment="Step:         480  Bead:       0 positions{ase}  cell{ase}" pbc="F F F"
O       -0.24824730       0.78191396       0.85492233
H        0.25852688       1.56832230       1.00736145
H       -0.78240131       0.48508844       1.59037259
O        0.26019910      -0.75605807      -0.87321513
H       -0.00174822       0.05125060      -0.07010111
H       -0.32246841      -0.91999635      -1.61198580
H        0.65839170      -1.59505010      -0.62530338
7
Properties=species:S:1:pos:R:3 ipi_comment="Step:         500  Bead:       0 positions{ase}  cell{ase}" pbc="F F F"
O       -0.25781317       0.78025877       0.84818398
H        0.35680863       1.49533195       1.05365796
H       -0.69058797       0.48210927       1.70129248
O        0.25341586      -0.75191068      -0.88292430
H       -0.08389949       0.02227288       0.03806441
H       -0.29429216      -0.94097986      -1.64370052
H        0.78176518      -1.50867561      -0.59791499
7
Properties=species:S:1:pos:R:3 ipi_comment="Step:         520  Bead:       0 positions{ase}  cell{ase}" pbc="F F F"
O       -0.29281296       0.81160170       0.88275337
H        0.51792624       1.36155018       1.00789603
H       -0.59539464       0.47737772       1.80887757
O        0.26421166      -0.76405050      -0.90694204
H       -0.01126618      -0.08065798      -0.05358995
H       -0.33127284      -1.00010402      -1.63737546
H        0.87396789      -1.51289949      -0.74188492
7
Properties=species:S:1:pos:R:3 ipi_comment="Step:         540  Bead:       0 positions{ase}  cell{ase}" pbc="F F F"
O       -0.31316468       0.83640258       0.90332011
H        0.57640960       1.30488690       1.04112255
H       -0.50799920       0.38900848       1.82683624
O        0.28622896      -0.78283101      -0.93843650
H       -0.10906113      -0.02881478       0.09965926
H       -0.46941748      -0.99377990      -1.53885499
H        0.93759254      -1.52158977      -0.87139479
7
Properties=species:S:1:pos:R:3 ipi_comment="Step:         560  Bead:       0 positions{ase}  cell{ase}" pbc="F F F"
O       -0.30746360       0.82186353       0.90852689
H        0.52360972       1.40764478       1.06768059
H       -0.56149639       0.34194401       1.80555489
O        0.28387651      -0.76604651      -0.94595072
H       -0.00706860       0.06219193       0.13275900
H       -0.48013798      -1.14789602      -1.47995569
H        0.89946804      -1.54981355      -0.93204688
7
Properties=species:S:1:pos:R:3 ipi_comment="Step:         580  Bead:       0 positions{ase}  cell{ase}" pbc="F F F"
O       -0.27685458       0.78655389       0.89936472
H        0.32868856       1.57128632       1.17694903
H       -0.63425540       0.37637574       1.76937365
O        0.26601297      -0.74908032      -0.94531784
H        0.03204577      -0.03278836      -0.05612893
H       -0.55816919      -1.11369350      -1.40295082
H        1.00376849      -1.39596147      -0.75787372
7
Properties=species:S:1:pos:R:3 ipi_comment="Step:         600  Bead:       0 positions{ase}  cell{ase}" pbc="F F F"
O       -0.24239771       0.74357551       0.88926020
H        0.14150082       1.66005894       1.12729032
H       -0.72584543       0.39047183       1.68676614
O        0.25190864      -0.70521993      -0.93628889
H       -0.00595911      -0.00534214      -0.07326935
H       -0.51153853      -1.27011921      -1.29697137
H        0.95088451      -1.38384994      -0.69737506
7
Properties=species:S:1:pos:R:3 ipi_comment="Step:         620  Bead:       0 positions{ase}  cell{ase}" pbc="F F F"
O       -0.22231599       0.71831861       0.91617579
H        0.00684850       1.68678989       0.90309140
H       -0.83665815       0.44417221       1.60303883
O        0.24766795      -0.69660045      -0.95474341
H       -0.03135206       0.07400147      -0.02706232
H       -0.53760254      -1.26408852      -1.19736779
H        0.99637730      -1.28558601      -0.66955383
7
Properties=species:S:1:pos:R:3 ipi_comment="Step:         640  Bead:       0 positions{ase}  cell{ase}" pbc="F F F"
O       -0.20510255       0.71794552       0.96382751
H       -0.21735424       1.67567203       0.78971983
H       -0.93672061       0.64389501       1.55811497
O        0.24490227      -0.69590436      -0.97937233
H       -0.01861152      -0.09442136      -0.10369422
H       -0.49086945      -1.31186459      -1.21019333
H        1.03185359      -1.26311869      -0.78721933
7
Properties=species:S:1:pos:R:3 ipi_comment="Step:         660  Bead:       0 positions{ase}  cell{ase}" pbc="F F F"
O       -0.20054697       0.74114395       1.01400380
H       -0.24486422       1.57937561       0.58026216
H       -0.99326081       0.54210874       1.47901691
O        0.24208340      -0.71383517      -1.01318183
H       -0.06492071      -0.01617499       0.15051129
H       -0.43729731      -1.33948630      -1.28785804
H        1.08107582      -1.19926837      -0.93497847
7
Properties=species:S:1:pos:R:3 ipi_comment="Step:         680  Bead:       0 positions{ase}  cell{ase}" pbc="F F F"
O       -0.19307051       0.74469411       1.03136742
H       -0.36981653       1.54441037       0.58779243
H       -1.04277156       0.55239323       1.39842174
O        0.23279292      -0.72104010      -1.01134933
H        0.04874689      -0.01822995       0.24320731
H       -0.36223705      -1.34396555      -1.39743273
H        1.09560316      -1.11004489      -1.14971619
7
Properties=species:S:1:pos:R:3 ipi_comment="Step:         700  Bead:       0 positions{ase}  cell{ase}" pbc="F F F"
O       -0.19684405       0.73088536       1.01327266
H       -0.30963629       1.56788338       0.65680653
H       -0.98411280       0.43188396       1.46529268
O        0.23756726      -0.72227730      -0.98285143
H       -0.01770106       0.02062943       0.06869270
H       -0.43586584      -1.24754436      -1.36214151
H        1.10095631      -0.90947955      -1.31149682
7
Properties=species:S:1:pos:R:3 ipi_comment="Step:         720  Bead:       0 positions{ase}  cell{ase}" pbc="F F F"
O       -0.19432878       0.69061527       0.94837518
H       -0.30384603       1.60836374       0.92074250
H       -0.89357008       0.41409459       1.56360825
O        0.23660026      -0.70378706      -0.92296721
H       -0.05593184       0.09293865      -0.00671004
H       -0.41630541      -1.19009096      -1.40279956
H        0.99871927      -0.71624278      -1.47811696
7
Properties=species:S:1:pos:R:3 ipi_comment="Step:         740  Bead:       0 positions{ase}  cell{ase}" pbc="F F F"
O       -0.21204850       0.68905754       0.92687915
H       -0.15514629       1.62620779       1.00870358
H       -0.73824537       0.20575519       1.59113063
O        0.24029619      -0.71300934      -0.90754731
H        0.01581686       0.05337859      -0.07279024
H       -0.50518177      -1.12249234      -1.36165119
H        0.93440844      -0.38268557      -1.47222806
7
Properties=species:S:1:pos:R:3 ipi_comment="Step:         760  Bead:       0 positions{ase}  cell{ase}" pbc="F F F"
O       -0.23464448       0.69294960       0.93503837
H       -0.11017724       1.64325286       1.16839431
H       -0.59879747       0.31591363       1.77593637
O        0.27098323      -0.74139951      -0.92362741
H       -0.03214157      -0.02029304      -0.05691301
H       -0.55210546      -0.94633890      -1.44108775
H        0.71645220      -0.22353614      -1.62744485
7
Properties=species:S:1:pos:R:3 ipi_comment="Step:         780  Bead:       0 positions{ase}  cell{ase}" pbc="F F F"
O       -0.27530251       0.70911310       0.99125808
H        0.04335211       1.67667633       1.01267565
H       -0.44441468       0.31547867       1.88194594
O        0.28562576      -0.75483965      -0.98724196
H        0.10119187      -0.09382950      -0.06246235
H       -0.63457252      -1.03315354      -1.29311467
H        0.77059218      -0.13939890      -1.60278835
7
Properties=species:S:1:pos:R:3 ipi_comment="Step:         800  Bead:       0 positions{ase}  cell{ase}" pbc="F F F"
O       -0.30434045       0.69969841       1.01354311
H        0.16352309       1.63431354       1.02314704
H       -0.23645039       0.44269779       1.96747194
O        0.29179222      -0.73140766      -0.99635977
H        0.11928742      -0.14666400      -0.02932220
H       -0.54851657      -1.12237819      -1.41354244
H        0.70132226      -0.30467909      -1.82048869
7
Properties=species:S:1:pos:R:3 ipi_comment="Step:         820  Bead:       0 positions{ase}  cell{ase}" pbc="F F F"
O       -0.30610745       0.68188076       1.01500558
H        0.18142773       1.60727205       0.91387714
H       -0.07548517       0.27276790       1.88770701
O        0.27986590      -0.70389487      -0.99386696
H       -0.01856465       0.02434634      -0.15480727
H       -0.49678422      -1.29036048      -1.25409155
H        0.82591280      -0.26461724      -1.72819786
7
Properties=species:S:1:pos:R:3 ipi_comment="Step:         840  Bead:       0 positions{ase}  cell{ase}" pbc="F F F"
O       -0.29309870       0.65778435       0.96755076
H        0.07369161       1.62823885       1.12021852
H        0.10163822       0.12566509       1.71280634
O        0.25617048      -0.66340899      -0.95376014
H       -0.04614930       0.04010810       0.06803579
H       -0.30913900      -1.37713794      -1.35934903
H        0.76608404      -0.32759960      -1.76059644
7
Properties=species:S:1:pos:R:3 ipi_comment="Step:         860  Bead:       0 positions{ase}  cell{ase}" pbc="F F F"
O       -0.27763342       0.62682533       0.96845417
H       -0.03686169       1.62196959       1.03318504
H        0.11257428       0.09510739       1.71819482
O        0.24090134      -0.64279420      -0.95263876
H       -0.02409997       0.20411021      -0.12501816
H       -0.25992988      -1.44189752      -1.20965732
H        0.79132966      -0.22583126      -1.66772692
7
Properties=species:S:1:pos:R:3 ipi_comment="Step:         880  Bead:       0 positions{ase}  cell{ase}" pbc="F F F"
O       -0.27561349       0.62071617       0.98582229
H       -0.12624093       1.60011973       1.09151219
H        0.14728583       0.22677971       1.80149344
O        0.24760098      -0.61623628      -0.98491290
H       -0.10100148      -0.07500461       0.01986262
H       -0.24240256      -1.42561099      -1.14928508
H        0.76697425      -0.39738859      -1.77801702
7
Properties=species:S:1:pos:R:3 ipi_comment="Step:         900  Bead:       0 positions{ase}  cell{ase}" pbc="F F F"
O       -0.27819390       0.61479407       1.04093407
H       -0.24848964       1.55895327       0.88696239
H        0.11790250       0.31566904       1.90047755
O        0.24285385      -0.62903522      -1.03446307
H        0.14222510       0.18611282       0.09985422
H       -0.19926861      -1.45490609      -1.19853330
H        0.74854884      -0.37979287      -1.79146862
7
Properties=species:S:1:pos:R:3 ipi_comment="Step:         920  Bead:       0 positions{ase}  cell{ase}" pbc="F F F"
O       -0.27620527       0.61984905       1.06667058
H       -0.37739004       1.54481859       1.00164097
H        0.21368690       0.48334985       1.90314525
O        0.24283264      -0.62838360      -1.06658956
H        0.07255446      -0.05945804       0.16588638
H       -0.12628475      -1.48164799      -1.27303113
H        0.74712454      -0.35160154      -1.79892731
7
Properties=species:S:1:pos:R:3 ipi_comment="Step:         940  Bead:       0 positions{ase}  cell{ase}" pbc="F F F"
O       -0.25965139       0.60388102       1.07617201
H       -0.50969264       1.46189189       0.90492736
H        0.33470221       0.46436611       1.80403810
O        0.23503469      -0.62040341      -1.05949610
H       -0.16714649       0.06938725       0.06533311
H       -0.04033478      -1.49838478      -1.31775983
H        0.77318844      -0.23501649      -1.72121918
7
Properties=species:S:1:pos:R:3 ipi_comment="Step:         960  Bead:       0 positions{ase}  cell{ase}" pbc="F F F"
O       -0.26851840       0.57289298       1.04354923
H       -0.52769785       1.45738882       1.07848613
H        0.48858635       0.53184576       1.59537906
O        0.21544831      -0.59431578      -1.02664174
H        0.06209078       0.01405726       0.07084671
H        0.03345434      -1.49091584      -1.33826196
H        0.78589606      -0.17235274      -1.67480592
7
Properties=species:S:1:pos:R:3 ipi_comment="Step:         980  Bead:       0 positions{ase}  cell{ase}" pbc="F F F"
O       -0.24827660       0.53788580       1.04090969
H       -0.62706530       1.39065948       0.95244503
H        0.52309620       0.56811234       1.55404258
O        0.21312123      -0.55787928      -1.01755569
H       -0.15476832       0.01266300      -0.06450720
H        0.01382221      -1.50633919      -1.12108219
H        0.80290202      -0.14775856      -1.69157337
7
Properties=species:S:1:pos:R:3 ipi_comment="Step:        1000  Bead:       0 positions{ase}  cell{ase}" pbc="F F F"
O       -0.25018341       0.51285238       1.04950538
H       -0.70919387       1.37312504       0.99865858
H        0.54385366       0.67300108       1.53662367
O        0.19784667      -0.52727475      -1.03470500
H        0.04299205       0.02200304       0.08057563
H        0.12562106      -1.51562633      -1.04384288
H        0.82741695      -0.32359036      -1.80692702
7
Properties=species:S:1:pos:R:3 ipi_comment="Step:        1020  Bead:       0 positions{ase}  cell{ase}" pbc="F F F"
O       -0.24016596       0.50605262       1.09590903
H       -0.82486740       1.31117539       0.94645782
H        0.49508805       0.78570544       1.67775699
O        0.18652008      -0.53347743      -1.08432129
H        0.14620224       0.10300244      -0.09407894
H        0.16982358      -1.51899015      -0.92085183
H        0.86522207      -0.24560574      -1.79320483
7
Properties=species:S:1:pos:R:3 ipi_comment="Step:        1040  Bead:       0 positions{ase}  cell{ase}" pbc="F F F"
O       -0.21729672       0.50812931       1.11150700
H       -0.94792987       1.22830531       1.03868127
H        0.42151256       0.86263011       1.80402899
O        0.16711581      -0.52857246      -1.11874116
H        0.01460510      -0.02942939      -0.14142331
H        0.33697967      -1.50200685      -0.91146449
H        0.97130505      -0.23502481      -1.67500155
7
Properties=species:S:1:pos:R:3 ipi_comment="Step:        1060  Bead:       0 positions{ase}  cell{ase}" pbc="F F F"
O       -0.21477851       0.51915352       1.09499838
H       -1.07603921       1.07134821       1.26619013
H        0.53325140       0.77837815       1.75665120
O        0.15673712      -0.53471810      -1.12760321
H        0.10149485      -0.03325784       0.00231299
H        0.38487943      -1.50650854      -1.03544592
H        0.97764779      -0.06291839      -1.47220358
7
Properties=species:S:1:pos:R:3 ipi_comment="Step:        1080  Bead:       0 positions{ase}  cell{ase}" pbc="F F F"
O       -0.20662641       0.51681485       1.06083347
H       -1.09463786       0.86743807       1.46118805
H        0.59623904       0.71640632       1.70569187
O        0.16906916      -0.51498825      -1.08827056
H       -0.17567096      -0.09561789       0.00526206
H        0.38624424      -1.48007264      -1.17660573
H        0.88393502      -0.03714559      -1.56005399
7
Properties=species:S:1:pos:R:3 ipi_comment="Step:        1100  Bead:       0 positions{ase}  cell{ase}" pbc="F F F"
O       -0.21566589       0.51546279       1.03518279
H       -1.05507165       0.62970580       1.60611054
H        0.63291243       0.62015539       1.64314615
O        0.17684681      -0.50274932      -1.06058462
H        0.01664440      -0.02946944      -0.04060771
H        0.28941730      -1.46766548      -1.19048911
H        0.73223490       0.04548546      -1.61498143
7
Properties=species:S:1:pos:R:3 ipi_comment="Step:        1120  Bead:       0 positions{ase}  cell{ase}" pbc="F F F"
O       -0.20952364       0.53420645       1.04736014
H       -1.03448489       0.26533513       1.56397203
H        0.59124761       0.59052479       1.70565783
O        0.18374633      -0.48841793      -1.06688042
H       -0.03978441      -0.08370544       0.03060396
H        0.27121979      -1.44411723      -1.19395441
H        0.62093990      -0.05479351      -1.79645300
7
Properties=species:S:1:pos:R:3 ipi_comment="Step:        1140  Bead:       0 positions{ase}  cell{ase}" pbc="F F F"
O       -0.21964108       0.55315915       1.08429470
H       -0.92120264      -0.01147240       1.48240895
H        0.56233215       0.53724342       1.73517249
O        0.18689451      -0.50257617      -1.09940419
H        0.07509508       0.15741311       0.07630246
H        0.27472470      -1.45324032      -1.19008202
H        0.52880489      -0.03279793      -1.86398358
7
Properties=species:S:1:pos:R:3 ipi_comment="Step:        1160  Bead:       0 positions{ase}  cell{ase}" pbc="F F F"
O       -0.22573572       0.56377320       1.11968912
H       -0.80585285      -0.13935168       1.41152351
H        0.54047101       0.54585861       1.73804262
O        0.18734666      -0.50244210      -1.12354241
H        0.06755815       0.13279277       0.11027102
H        0.33968946      -1.43834515      -1.24733582
H        0.46744615      -0.07440300      -1.95134160
7
Properties=species:S:1:pos:R:3 ipi_comment="Step:        1180  Bead:       0 positions{ase}  cell{ase}" pbc="F F F"
O       -0.22622834       0.53457274       1.11915209
H       -0.81448143      -0.02962064       1.58850878
H        0.54137495       0.62473429       1.66933693
O        0.18788996      -0.49070342      -1.13133896
H        0.07201548       0.13619924       0.11632163
H        0.41752042      -1.41843315      -1.22056183
H        0.39207815      -0.00917450      -1.96017517
7
Properties=species:S:1:pos:R:3 ipi_comment="Step:        1200  Bead:       0 positions{ase}  cell{ase}" pbc="F F F"
O       -0.21368102       0.49531762       1.10568431
H       -0.85411466       0.14280443       1.68856102